material formula,Band_gap_GGA,Band_gap_HSE,Band_gap_GGA_optical,Band_gap_HSE_optical
Br4S1W1,1.211598,2.085391,1.332981,2.208978
Br4S9V4,0.590896,1.742443,0.676713,1.876122
Br4Si1,4.047595,5.370757,4.047595,5.370757
Br4Sn1,1.495272,2.552391,2.873884,4.076334
Br4Tc1,0.929297,2.4693,0.969483,2.4693
Br4Ti1,2.69381,3.840782,2.69381,3.840782
Br5C1Ir1K2O1,1.991422,3.28379,2.300767,3.618867
Br5C1K2O1Os1,0.52686,1.966557,0.56651,2.018024
Br5C1La3,2.1617629999999997,3.0535509999999997,2.326594,3.289444
Br5Co1Cs3,2.444122,3.9808440000000003,2.49549,4.038541
Br5Cs1Hg2,1.903013,3.192142,1.903013,3.192142
Br5Cs1Sn2,2.425897,3.2255949999999998,3.172006,4.005419
Br5Cs3Cu2,2.710165,3.6354349999999998,2.710165,3.6354349999999998
Br5Cs3Fe1,2.655859,3.426741,2.74001,3.436156
Br5Cs3Hg1,2.443117,3.61067,2.443117,3.61067
Br5Cs3Mn1,3.677889,4.832348,3.677889,4.832348
Br5F6Sb1,1.490256,2.670696,1.563762,2.723349
Br5Hg6S4Tl1,1.796921,2.82041,2.548611,3.656651
Br5Hg6Se4Tl1,1.602135,2.572854,2.269484,3.315497
Br5In1Sn2,2.264152,3.0724940000000003,2.831673,3.620564
Br5K1Sn2,2.351016,3.193243,3.041858,3.846476
Br5K2N1O1Ru1,1.669329,3.103946,1.79972,3.103946
Br5Nb1,1.414961,2.363096,1.43891,2.389246
Br5P1,1.712109,2.650419,2.026233,2.983263
Br5Pb1Tl3,2.901028,3.726576,3.039915,3.878579
Br5Rb1Sn2,2.315135,3.134365,3.14641,3.972359
Br5Re1Te3,1.2676209999999999,2.048154,1.518245,2.343265
Br5Sn2Tl1,2.348546,3.182799,2.91188,3.714102
Br5Te2Zr1,0.9584360000000001,1.307171,1.400361,2.000108
Br6Cs2Pt1,1.405936,2.395219,2.240161,3.303882
Br6Cs2Sn1,1.39693,2.421735,1.39693,2.421735
Br6Cs2Te1,2.11492,2.799157,2.924409,3.670083
Br6H8N2Re1,0.933063,2.665853,0.933063,2.665853
Br6Hg1Tl4,1.709493,2.674694,1.709493,2.674694
Br6Hg3Se2Zr1,1.863097,2.89722,2.160686,3.238593
Br6Hg7P4,1.318165,2.127835,2.001075,2.87023
Br6In2Zr1,2.258802,3.156092,2.258802,3.156092
Br6K2Pt1,1.158947,2.111782,2.272041,3.324215
Br6K2Re1,0.958352,2.6895629999999997,1.484573,3.238497
Br6K2Se1,1.612741,2.547363,2.28208,3.736062
Br6K2Sn1,1.179956,2.189989,1.179956,2.189989
Br6K2Te1,1.956349,2.628055,2.926172,3.671001
Br6K4Mn1,3.509578,4.532783,4.238967,5.109191
Br6Pb2Pd1,1.194928,2.446968,1.500705,2.714136
Br6Pb4Se1,1.841617,2.6887220000000003,2.857108,3.742769
Br6Pd1Rb2,0.533584,1.389625,1.558888,2.519808
Br6Pd1Se2,1.32763,2.382756,1.843731,2.946827
Br6Rb2Sn1,1.27423,2.291142,1.27423,2.291142
Br6Rb2Te1,2.018731,2.694983,2.921055,3.665688
Br6Ta1Te2,1.159741,1.64154,1.832444,2.624631
Br6Te1Tl2,2.098014,2.7977770000000004,2.640972,3.395492
Br6W1,0.980109,1.721327,1.337055,2.092577
Br7Fe1Se1,1.699339,2.62193,1.844904,2.62193
Br7Ga1Se1,2.232653,3.150998,2.360928,3.2835
Br7In4,2.132279,2.960186,2.711778,3.159405
Br7Ir1Te7,1.22023,1.832035,1.22023,1.832035
Br7Mn2Rb3,2.189879,3.1265609999999997,3.918749,4.76361
Br7Nb3S1,0.738553,1.5788410000000002,0.738553,1.5788410000000002
Br7P1,1.265036,2.351911,1.265036,2.351911
Br7Re3Te7,1.196072,1.851571,1.388869,1.851571
Br7S1Ta3,0.801689,1.5634510000000001,1.869804,1.5634510000000001
Br7Ta3,1.23061,1.650356,1.350921,1.759448
Br8Ga2Pd1,1.603069,2.904127,3.215731,4.658695
Br8Hg2Pd1Rb2,1.484167,2.864903,2.211686,3.707859
Br8Nb3,0.030669,0.0593,0.790811,1.099408
Br8S9Ta4,1.281574,1.8511220000000002,1.413128,1.987437
Br9Cs3Sb2,1.947164,2.541135,1.947164,2.541135
Br9Cs5Nb2S4,1.768219,2.758276,1.998702,2.973458
Br9Ir1Se3,1.619407,2.549416,1.817237,2.76061
Br9K2Nb3,1.0825010000000002,1.5535839999999999,1.091008,1.576789
Br9Nb2Rb3,0.366153,1.430588,0.471754,1.503112
Br9Nb2S4Tl5,1.654791,2.606668,1.903553,2.846961
Br9Nb3Tl2,1.0329430000000002,1.4842790000000001,1.054751,1.4842790000000001
Br9Os2Rb3,0.498896,1.6432699999999998,0.692396,1.84088
Br9Rb3Sb2,1.876948,2.464967,1.876948,2.464967
Br9Ta1Te1,2.1225,3.000943,2.171961,3.055265
C,3.011296,4.134729,5.852415,7.346929
C10Co1H14N8O2,2.538995,3.926857,3.805611,5.406416
C10Hg1Mn2O10,2.578092,3.262718,2.578092,3.262718
C11F7,2.201771,2.983168,3.336431,4.281656
C11N4,2.43125,3.855583,2.699834,4.155579
C12Cl6O12Os3Si2,2.550462,3.484728,2.628109,3.586514
C12F10Se1,2.755577,4.0852,2.755577,4.0852
C12Fe2N12Pt3,1.746416,2.835365,2.010569,3.141093
C12Mn2O12Pt1,1.767676,2.508661,2.535511,3.247751
C12O12Pt1Re2,1.834938,2.567781,2.469054,3.140472
C1Ca1Cs1F1O3,4.616385,6.376062,4.616385,6.376062
C1Ca1O3,4.651122,6.711941,5.306695,7.430985
C1Ca4N4,1.787185,2.734333,2.247026,3.220814
C1Cd1F1K1O3,1.663016,3.50739,5.042701,6.97365
C1Cd1H6I3N3,2.656415,3.729819,3.411973,4.529452
C1Cd1N2,2.305662,3.595187,6.341467,6.349679
C1Cd1O3,2.610091,4.471867,5.301057,7.380017
C1Cl18Rb4Zr6,1.260685,1.936964,2.19133,2.955683
C1Cl1Cu1H2N2,2.050372,3.001456,2.452494,3.533188
C1Cl1Cu1O1,2.686726,3.986035,3.498816,4.948746
C1Cl1F4I1,2.715306,4.040473,2.766551,4.121095
C1Cl1H3O1S1,0.784554,1.322642,0.787902,1.322642
C1Cl1H6N1O1,5.401234,6.831446,5.401234,6.831446
C1Cl1H9N6,4.980278,6.535755,5.300423,6.907708
C1Cl1Hg1N1S1,0.764115,1.662728,0.764115,1.662728
C1Cl1La2N3,1.870716,2.779237,2.672324,3.674003
C1Cl1N1O2S2,2.699951,3.808706,2.771661,3.882614
C1Cl1N1S1,2.721285,3.905113,2.851073,4.051559
C1Cl1N5S3,2.243712,3.392524,2.288207,3.392524
C1Cl1O2Pb1,2.932724,4.391544,4.149898,5.44335
C1Cl2Hg2N2,1.923856,3.10341,1.923856,3.10341
C1Cl2Lu2,0.925342,1.765325,3.226863,4.3273
C1Cl2S1,2.884622,4.315183,3.050417,4.503488
C1Cl2Sc2,0.8349499999999996,1.6795459999999998,2.457283,3.599664
C1Cl3Cu1H9N4O1S1,1.412747,2.807009,1.605445,3.09829
C1Cl3H3Te1,2.853719,3.622728,2.895847,3.636041
C1Cl3N3S2,2.681003,3.808764,2.879288,4.019211
C1Cl4O2Sb1,2.080864,3.416072,2.428555,3.783945
C1Cl5H6Hg2N3,2.5002310000000003,3.755435,3.1224,4.419733
C1Cl5N1Sb1,1.958146,3.280984,1.958146,3.280984
C1Cl6N1Sb1,1.92837,3.26757,1.92837,3.26757
C1Co1Na3O7P1,3.022764,4.651224,3.868805,4.651224
C1Co1O3,2.37563,4.342264,2.685285,4.744822
C1Cs1H1N2O2,0.994648,2.770811,1.057371,2.855789
C1Cs1H1O3,5.009283,6.742715,5.601047,7.587536
C1Cs1H4N3,3.792375,5.088374,3.792375,5.088374
C1Cs2I18Zr7,0.118526,0.416276,0.202794,0.506904
C1Cu1F1K1O3,1.268625,3.487837,1.488852,3.595046
C1Cu1H1O5S1,3.623048,5.151481,3.757798,5.293474
C1Cu1H2N1S2,1.894386,2.817823,2.256952,3.244624
C1Cu1N1S1,2.464288,3.345412,2.900397,3.721248
C1Cu1Na3O7P1,1.4413700000000003,3.527581,5.243672,7.173778
C1Cu1O3,1.040133,3.230794,4.369217,6.162937
C1Cu2H4O5,1.979687,3.255494,2.801944,3.909362
C1D1,3.295114,4.443274,3.295114,4.443274
C1D5Fe1O4P1,3.6097159999999997,4.0746579999999994,3.76472,4.227353
C1F1H3K2O4,4.695817,6.491887999999999,5.927114,7.984392
C1F1H3O2,5.436844000000001,7.42236,5.554071,7.571301
C1F1H6N1,6.070704,7.874157,8.501783,10.363505
C1F1La1N2,2.699647,3.960164,2.699647,3.960164
C1F1N1S1Sn1,2.803082,3.717559,3.431116,4.346206
C1F1N5O3S5,1.781047,2.547696,1.958103,2.692538
C1F1O3Tl3,2.530357,3.696272,3.606644,4.737857
C1F2N1O2P1,5.903269,7.745597999999999,5.983629,7.745597999999999
C1F3I1,3.646943,4.928959,3.695678,4.971278
C1F4,9.123469,11.593242,11.689725,14.371627
C1F5N1S2,2.783295,4.085741,2.977267,4.311547
C1F6H6N3P1,5.201422,6.900018,6.006854,7.733925
C1F9H2O3S1Sb1,4.877332,6.710834,5.276631,7.131572
C1Fe1H5O4P1,3.5095389999999997,4.020256000000001,3.733584,4.335373
C1Ge1,1.635762,2.394615,6.070296,7.168997
C1Ge1H3N1O1,4.840046,6.2867169999999994,5.120895,6.544647
C1H1K1N2O2,0.810046,2.604363,1.010988,2.786059
C1H1N1O1,4.638595,6.545792,4.695002,6.603653
C1H1N3O1,3.386893,5.117009,3.688325,5.447542
C1H2Mn1O6P1,3.313564,4.65516,5.740556,6.971875
C1H3Hg1O3S1,2.867233,4.119984,3.590511,4.119984
C1H3K1N1,3.8809,5.227003,4.377236,5.725429
C1H3N1O1Si1,5.656253,7.107604,5.787797,7.264036
C1H3N1Rb1,3.768041,5.127205,4.221305,5.61168
C1H3N1S2Sb1,0.892954,1.333156,1.894169,1.333156
C1H3P1S3,1.914696,3.040524,1.914696,3.040524
C1H3Se1,1.995106,3.072728,1.995106,3.072728
C1H3Te1,1.2939820000000002,2.005367,3.084482,3.982421
C1H4In1O7Se1,3.5781110000000003,5.07192,4.126321,5.535542
C1H4Li1N1O2S1,4.327551,5.551936,4.327551,5.551936
C1H4Li1N3,4.190312,5.579283,4.922375,6.421459
C1H4N2O2S1,2.933177,4.403878,3.381041,4.919073
C1H4Na4O9P2,2.127657,3.769436,2.18164,3.769436
C1H5I3N2Sn1,0.598213,0.963839,0.598213,0.963839
C1H5N3,4.304645,5.556273,5.159236,6.600645
C1H5Na1O4,5.067601,6.990122,5.19086,7.154461
C1H6N4O3,0.685643,0.908191,1.278308,2.158545
C1H6N6O5,2.18303,3.671631,2.359117,3.854106
C1H8I1N5O3,2.222571,3.338079,2.222571,3.338079
C1H8N2Na2O4S2,0.402482,0.7039730000000001,1.065707,1.470469
C1H9N9,1.961515,3.396612,4.331929,3.396612
C1Hg1N2,2.542561,3.733007,2.542561,3.733007
C1I12Zr6,0.2807140000000006,0.6707929999999998,0.56378,0.963304
C1I2O1Pt1,1.491382,2.401774,1.632283,2.538924
C1I4,0.863919,1.824437,0.863919,1.824437
C1I5La3,0.20438899999999993,0.5802059999999996,0.688243,1.234697
C1K1,1.1551939999999998,2.744313,3.024065,5.004201
C1K1N2O4,1.986812,3.100996,2.168204,3.371104
C1K2Mn3O11V2,2.553524,3.168813,2.55829,3.173524
C1K3O8V1,2.310259,3.709627,2.560522,4.002352
C1Li1N1S1,3.624112,4.767354,4.358292,5.569034
C1Li2N2,3.840727,4.99725,3.840727,4.99725
C1Mn1N2,2.2432,3.124738,3.700371,4.663438
C1Mn1O3,4.046901,5.527341,5.108331,6.622905
C1N1S2,2.985671,4.205867,2.985671,4.205867
C1N1S3,2.68691,3.870961,2.756124,3.9602
C1N1Se1,2.248803,3.2913249999999996,2.448688,3.493377
C1N2,4.521204,6.278319,7.342555,9.479368
C1N2Pb1,1.6957060000000004,2.487629,2.768168,3.616272
C1N2S2,0.297649,0.748249,0.430762,0.748249
C1N2Sr1,3.236254,4.383291,3.450739,4.596367
C1N2Tl2,1.881647,2.5121650000000004,2.69416,3.346063
C1N4S3,1.74008,2.567077,1.74008,2.567077
C1N4Sr4,1.172203,2.0535620000000003,2.012482,3.046185
C1Na2S3,1.186949,2.211626,2.158246,3.320771
C1O1,5.966051,8.028059,5.966051,8.028059
C1O2,6.707305,8.469341,6.707305,8.469341
C1O3Tl2,2.611352,3.474453,3.377912,4.32142
C1O6P1Sn2,2.177832,3.321436,2.19202,3.345308
C1Os1,0.160136,0.770791,1.737051,2.538446
C1Ru1,0.652502,1.472176,1.962987,3.017656
C1S14,2.450863,3.560673,2.844951,3.989451
C1S2,3.27381,4.261162,3.27381,4.261162
C1S3Tl2,1.691682,2.5324359999999997,2.252509,3.113495
C1Se2,2.02275,2.794525,2.343698,3.194072
C1Si1,1.36927,2.258374,6.073421,7.382191
C1Sn1,0.615373,1.408111,0.615373,1.408111
C2Ca1,1.736101,2.753606,3.613394,4.971911
C2Ca1H8N4O5,4.817914,6.301013,5.435067,7.085942
C2Cd1Cl2H8N4S2,3.39462,4.411731,3.965628,4.998475
C2Cd1H6I2N2O2,2.850512,3.963086,3.732903,5.020835
C2Cd1H6O7,3.56574,5.432304,3.719934,5.674989
C2Cl1Cs1N2Ni1,3.064669,3.7857499999999997,3.604569,4.572481
C2Cl1H6O3V1,3.113631,4.247664,3.290537,4.247664
C2Cl1H7N4O4S1,3.326418,4.586655,3.621845,4.940247
C2Cl1N2Ni1Rb1,2.965554,3.650947,3.53219,4.513277
C2Cl2H4Hg1N4,2.42263,3.740012,4.731901,6.072946
C2Cl2O2Pt1,3.174621,4.517151,3.189432,4.517151
C2Cl3H10Ir1O3,2.091218,3.630041,2.267783,3.808551
C2Cl3H8N1Pd1,1.649255,3.18974,2.085971,3.60433
C2Cl4Cu1H10N2,1.070716,2.622312,1.350677,2.897733
C2Cl5H6Se1Ta1,2.201077,3.182603,2.249674,3.222262
C2Cl8N1Nb1,2.322489,3.437896,2.400018,3.527621
C2Cl9La5,1.641525,2.512085,1.896229,2.929702
C2Co1H4O6,2.46993,3.892505,2.794947,4.130882
C2Co1La1,0.064097,0.23842,1.177556,1.750771
C2Co1N2S2,1.646273,2.969371,2.579966,4.081247
C2Co1N7Sr6,1.518805,2.403329,1.518805,2.403329
C2Co3O10Se2,2.444577,3.857095,2.556378,4.011467
C2Cs1H1O4,2.331575,4.084744,2.35764,4.111441
C2Cs1K1,3.476221,4.771103,3.54663,4.847967
C2Cs1N3,4.5710239999999995,5.838137,4.5710239999999995,5.838137
C2Cs2,3.100826,4.313794,3.140438,4.340641
C2Cs2F4O4Pt1,2.7208,4.339037,2.836148,4.423277
C2Cs2Pd1,1.686518,2.516951,2.60172,3.491427
C2Cs2Pt1,1.242537,1.9905449999999996,2.153116,2.965969
C2Cu1F6O6S2,1.790183,3.915959,6.598306,8.481059
C2Cu1F8H14N2O4V2,1.424755,3.620775,2.909689,3.620775
C2Cu1H2O4,1.74637,3.946006,1.948486,4.126899
C2Cu1K1,2.409372,3.1671620000000003,2.409372,3.1671620000000003
C2Cu1K1N2,3.105498,4.178517,3.750863,4.886712
C2Cu1K2O6,1.493485,3.622005,1.687147,3.770664
C2Cu1Na2O6,1.398287,3.537865,1.398287,3.537865
C2Cu1Rb1,2.283778,3.039478,3.871443,4.822385
C2Cu3H2O8,1.098668,3.265746,1.514804,3.630019
C2Cu4H3N5,2.295975,3.349202,2.295975,3.349202
C2Cu5H8I4N2O4,0.019617,1.125013,3.358938,1.125013
C2F4Te2,1.664898,2.508598,1.906536,2.763785
C2F6H12N6Ti1,2.526479,3.901584,2.5439,3.916948
C2F6O6S2Te3,1.992166,2.615943,2.080923,2.69673
C2F6Te2,2.487479,3.503721,2.567525,3.656269
C2Fe1H2N4,3.169681,3.7374419999999997,3.313676,3.890572
C2Fe1H4O6,2.297615,2.780737,2.448802,2.947625
C2Fe1H6N2O4,2.232036,2.762702,2.511219,2.762702
C2H10Hg1O8S2,3.088802,4.897547,6.435408,8.227313
C2H12N6Ni1S2,3.997439,4.985602,4.415242,4.985602
C2H1K1O4,3.0593690000000002,4.76252,3.624388,5.408811
C2H1O2,2.888468,4.345133,3.108039,4.597248
C2H1O3Sn1,2.105247,3.301565,2.298056,3.500307
C2H1O4Tl1,2.680928,4.153487,2.876941,4.35693
C2H2Mo1O4,2.296894,3.038764,2.355897,3.038764
C2H2N4Ni1,2.686189,3.646985,2.822798,3.758188
C2H2O4Pb1,2.935453,3.973568,3.002835,3.973568
C2H3Li1O5,3.3388169999999997,5.113103000000001,6.716953,8.776334
C2H4I1N2Na1O2,4.233677,5.555222,4.4509,5.555222
C2H4Mn1O6,2.427008,3.726121,2.560177,3.866871
C2H4N1O2,2.852103,4.414454,5.675422,7.55874
C2H5K1N3O3P1S2,3.395044,4.650558999999999,3.702115,5.006761
C2H5K1N3O4P1S1,3.734139,5.096874,4.013136,5.404627
C2H5N3Na1O4P1S1,3.3428250000000004,4.436068,3.604222,4.436068
C2H6K1N4O4P1,5.238256,6.872532,5.274705,6.939366
C2H6N1O1,2.55774,4.484554,2.602932,4.528129
C2H6N4Na1O4P1,4.959935,6.587174,4.959935,6.587174
C2H6N4O4P1Rb1,5.252732,6.874682,5.283409,6.945055
C2H6O4S1,6.094247,7.793159,6.468598,8.288725
C2H6O6Pd1S2,1.7655499999999997,3.7183289999999998,1.857775,3.806847
C2Hg1I1K1N2,2.605405,3.653348,3.654643,4.902414
C2Hg1N2O2,3.610817,4.889035,4.292176,5.666867
C2Hg1N2S2,2.376041,3.58584,4.372437,5.61434
C2Hg1N2Se2,2.208101,3.281032,2.235713,3.281032
C2Hg1O4,2.781967,4.593288,3.215533,5.044108
C2I2O2Re1,0.577121,1.765901,0.743401,2.017466
C2I9La5,1.409978,2.080498,1.558712,2.316501
C2In1Li1N4,2.855033,4.068814,2.884907,4.100873
C2K2,3.262129,4.530586,3.389712,4.686334
C2K2O4,2.716641,4.476369,2.716641,4.476369
C2K2Pd1,1.3931209999999998,2.172774,2.645581,3.649312
C2K2Pt1,0.945709,1.636404,2.106125,2.995906
C2La1Li1O6,4.2692890000000006,6.7910129999999995,4.362512,7.128209
C2La1Rh1,0.0,0.190846,0.0,0.505829
C2La2O2,2.904343,4.311566000000001,2.904343,4.311566000000001
C2Li1N4Y1,3.657709,4.934564,3.876303,5.114854
C2Li2,3.253239,4.646745,5.837562,4.646745
C2Mg1,2.53457,3.753536,5.198028,6.715583
C2N2,4.658977,6.06442,4.658977,6.06442
C2N2Pb1S2,2.614072,3.475728,3.175848,4.047406
C2N2S2Se1,2.228753,3.401404,2.465913,3.649538
C2N2S2Sn1,2.426068,3.18755,2.918428,3.708172
C2N2S3,2.610255,3.847957,3.160153,4.427794
C2N2S9,2.409827,3.536889,2.653819,3.817605
C2N2Se3,1.917448,2.988181,2.414145,3.475757
C2Na1O2,2.463194,4.034648,2.463194,4.034648
C2Na2,3.353334,4.648739,3.791805,5.149239
C2Na2Pd1,0.81904,1.5551260000000002,3.641173,4.78952
C2Na2Pt1,0.311112,0.891531,2.97157,3.938082
C2O4Pb1,2.697664,4.192888,3.235862,4.803827
C2O4Rb2,2.912433,4.687897,2.912433,4.687897
C2O4Sn1,2.239565,3.561975,2.391309,3.742649
C2O4Tl2,2.41535,3.634428,2.913126,4.038736
C2Pd1Rb2,1.5329890000000002,2.324598,2.323942,2.324598
C2Pt1Rb2,1.093109,1.7983580000000001,1.814915,2.638336
C2Rb2,3.532628,4.838368,3.664182,4.917068
C2Sr1,1.65329,2.925551,5.931004,7.528395
C3Ca2H1Li1,1.244319,1.990268,2.162038,2.925362
C3Ca2K2O9,4.724695,6.5484860000000005,4.724695,6.5484860000000005
C3Ca3Cl2,1.272873,2.038807,2.017009,2.86329
C3Ce1O13P1Sr3,3.844852,4.638679,3.892137,4.638679
C3Cl3H1Hg1N1,2.654871,3.5830450000000003,2.892547,3.842391
C3Cl7Mo1O1S2,0.809299,2.410561,0.938446,2.569962
C3Co1H3K1O6,2.950269,4.483452,2.950269,4.483452
C3Co1H9N6,3.944555,5.721308,3.984432,5.721308
C3Co1N3Sr3,1.076588,1.739297,2.017526,2.76791
C3Cr1H6N3S6,2.232591,3.324998,2.377322,3.479469
C3Cr1H9O3P3,3.124082,4.098589,3.231471,4.098589
C3Cr2N6,1.602759,2.64585,1.720829,2.792186
C3Cs3I1O9Pb2,3.449456,4.241911,4.067185,4.860133
C3Cu1F3O3,3.145922,4.492926,3.244535,4.62343
C3F1La2Na1O9,3.5200270000000002,5.977449999999999,3.774933,6.403076
C3F3Na2O6Sn2,2.511026,3.667793,2.805455,4.030204
C3F6,4.905771,6.547825,5.111539,6.789263
C3Fe1H3O6,2.01334,3.297546,2.01334,3.297546
C3Fe1H4O8,1.691546,3.043383,1.775347,3.043383
C3Fe1N1O4Tl1,2.604208,3.641315,2.676416,3.712507
C3Fe1O3S1,2.585066,3.566535,2.683857,3.670773
C3H1K1N6,2.991708,4.439515,3.341274,4.853749
C3H6Mn1N3Na1O3S3,3.297233,4.178502,3.386682,4.286812
C3H8N2O1,4.149455,5.507732,4.149455,5.507732
C3Hg1K1N3S3,2.022437,3.133318,2.022437,3.133318
C3I1O3Os1,2.363811,3.241331,2.582675,3.51355
C3I2O3Os1,1.88223,2.91451,2.587324,3.666462
C3K1Mn1N3,1.394845,1.97959,1.418901,1.991886
C3Lu2N6,4.0389859999999995,5.400335,4.216448,5.61474
C3Mg2,1.645513,2.416571,3.486016,4.363468
C3Mn1N3Rb1,1.27742,1.911069,1.412332,2.031574
C3N2,3.847536,5.360841,5.257716,6.990629
C3N4,0.913968,1.948298,3.381992,4.690554
C3O1S7,1.8970589999999998,2.870799,2.649277,3.721106
C3O2,3.709812,4.893145,3.829366,5.029678
C3O3Ru1Se1,2.206183,3.179814,2.356367,3.374211
C3Os2,0.077919,0.495427,1.31146,1.916251
C3S8,1.60096,2.489682,2.058417,2.972051
C3Sc4,0.323051,1.032729,0.323051,1.032729
C4Ca1Cu1H4O8,1.891172,4.013249,4.258059,6.164508
C4Ca1O4,3.752274,5.322544,4.251741,5.90469
C4Cd1Cl2H8N2,2.064942,3.344906,2.267473,3.584444
C4Cd1F2H8N8O3,0.13343300000000013,1.0076870000000002,4.385154,5.8261
C4Cd1H12N6O2S4,3.490067,4.707344,4.015103,5.244828
C4Cd1H6O2S4,2.324985,3.435811,2.522836,3.667424
C4Cd1Hg1N4S4,2.51436,3.612542,4.363574,5.542699
C4Cd1Hg1N4Se4,2.267105,3.264701,4.039705,5.184047
C4Cl2Cs2N4Pt1,2.753626,4.123676,2.942188,4.321765
C4Cl2K2N4Pt1,2.578947,3.983328,2.578947,3.983328
C4Cl2N4Pt1Rb2,2.601603,3.960373,2.806139,4.178053
C4Cl2O4Os1,2.32905,3.675017,2.514309,3.889694
C4Cl6H4N2Te1,0.451066,0.717253,0.668289,0.954342
C4Cl7Ga2O4Rh1,2.000084,3.453089,2.173508,3.661068
C4Co1H4Na2O8,3.086254,4.707739,3.086254,4.707739
C4Co1Hg1N4S4,2.273683,3.500269,2.509839,3.74316
C4Co1Hg1N4Se4,1.893239,3.09748,2.181984,3.633384
C4Cr1H4N1O10,0.953213,2.578865,0.983579,2.578865
C4Cr1H8N6S4,2.48896,3.598069,3.125068,3.936311
C4Cs1H12O14V1,2.498634,3.58424,3.215232,3.58424
C4Cs1N3,3.7878879999999997,5.09216,3.850176,5.158004
C4Cs2H2N4O2Pt1,1.4973889999999999,2.489668,1.4973889999999999,2.489668
C4Cs2I2N4Pt1,1.440837,2.369728,1.607824,2.547943
C4Cs2O4,2.68189,4.248484,2.983969,4.603318
C4Cu1H4Na2O10,1.86563,4.009864,2.824998,4.631843
C4Cu1H4O8Sr1,1.900581,4.031634,4.244815,6.154272
C4Cu1H6N8,2.021395,3.897715,2.075475,3.936389
C4Cu1O4,0.815345,2.552491,2.905889,2.552491
C4F10Ge1H2,6.320397,8.070251,6.416288,8.167904
C4F12P4,0.209953,1.704999,0.209953,1.704999
C4F6O4Ru1,0.363093,1.972045,0.620384,2.309572
C4Fe1H12O6S4,1.788931,2.692264,1.788931,2.692264
C4Fe1H7O8,1.491102,2.470649,1.657526,2.470649
C4Fe1Hg1N4S4,1.809001,2.669432,2.646664,3.274621
C4Fe1Y2,0.0,0.10260699999999989,0.0,1.27216
C4H1O4Rb1,2.625216,4.041032,3.024857,4.041032
C4H2K2N4O2Pt1,1.325976,2.28985,1.325976,2.28985
C4H2K3N4O3Os1S1,2.27814,3.251979,3.515327,3.251979
C4H2Mn1O4P1,3.114862,4.168136,3.670873,4.858084
C4H2N4O2Pt1Rb2,1.465443,2.464646,1.465443,2.464646
C4H2O3Sn1,0.871452,1.55437,1.107276,1.802058
C4H3N1O8P2Zn1,2.158588,3.325211,2.426314,3.69842
C4H3Na1O5,2.8393930000000003,4.301609,2.935241,4.301609
C4H4K1O9Y1,4.012872,5.843791,4.012872,5.843791
C4H4N4O2Pt1,3.194718,4.849608,3.696384,5.390119
C4H6Hg1N4O2,3.9141619999999997,5.570295,4.037076,5.680802
C4H6K1N4Na1O3Pt1,1.022214,1.8686129999999999,3.775205,1.8686129999999999
C4H6N2S2Sn1,3.864723,5.042063,4.006922,5.203368
C4H6Na2O7,2.770653,4.200204,2.788121,4.230318
C4H6O7Sr1,2.846879,4.284822,2.846879,4.284822
C4H7O8V1,1.743217,2.683472,1.822013,2.683472
C4Hg1Mn1N4S4,2.462386,3.542461,2.753132,3.86327
C4Hg1Mn1N4Se4,2.19975,3.185081,3.328597,4.297128
C4Hg1N4S4Zn1,2.540709,3.649077,4.339651,5.54126
C4Hg1N4Se4Zn1,2.294707,3.298834,3.953232,5.109128
C4I1Mo1O4,0.626755,1.362515,0.73197,1.451252
C4I2K2N4Pt1,1.335575,2.249331,1.539947,2.470152
C4I2N4Pt1Rb2,1.369864,2.288679,1.558942,2.491669
C4I2O4Ru1,2.082049,3.141352,2.243269,3.320954
C4K1Li1N6,4.511222,5.736436,5.056243,6.304781
C4K2N4Pd1S4,1.626205,2.785163,1.712348,2.869642
C4K3N4O2Re1,2.382432,3.749801,2.382432,3.749801