material formula,Band_gap_GGA,Band_gap_HSE,Band_gap_GGA_optical,Band_gap_HSE_optical
Bi1O6V1Zn2,2.830947,3.708214,2.830947,3.708214
Bi1O8P1Pb4,2.545062,3.49239,2.545062,3.49239
Bi1Os1Se1,0.479149,1.131399,1.20987,1.871349
Bi1P2S6Tl1,1.963904,2.677788,2.265696,2.971606
Bi1P2Se6Tl1,1.463705,2.106502,1.672743,2.324223
Bi1Rb1,0.224857,0.473757,0.279646,0.551912
Bi1Rb1S2,1.352987,2.029959,3.781048,4.607777
Bi1Rb1S4Si1,2.002002,2.750903,2.418235,3.187897
Bi1Rb3Se3,2.105065,2.889139,2.160619,2.954335
Bi1Rh1S1,0.283995,0.776181,0.778178,1.245256
Bi1Rh1Se1,0.159045,0.572089,0.756994,1.154932
Bi1S2Tl1,0.026395,0.405207,0.026395,0.405207
Bi1Se2,0.654755,1.213493,0.827742,1.411531
Bi1Se2Tl1,0.177484,0.121241,0.177484,0.121241
Bi1Te2Tl1,0.0,0.656576,0.0,1.702015
Bi2Br1In1Se4,1.152074,1.765954,1.6536,2.305982
Bi2Br1Lu1O4,1.282372,2.640467,3.266543,4.697899
Bi2Br1O4Y1,1.33773,2.263029,4.586935,5.712361
Bi2Br7Cs1,2.828562,3.708921,3.072642,3.95836
Bi2Br7Rb1,2.831357,3.7258959999999997,3.084811,3.983585
Bi2Br9Cs3,2.54677,3.261566,3.148796,3.261566
Bi2C1O5,1.063496,2.547029,3.473667,5.196617
Bi2Ca1O9Ta2,2.853332,4.008989,2.91799,4.075712
Bi2Ca4O1,0.739613,1.393422,1.285926,2.077387
Bi2Cd1Cs2S5,1.746749,2.423517,2.256218,2.961725
Bi2Cd1Ge1O6,1.864085,2.968699,1.864085,2.968699
Bi2Cd1O4,2.725961,3.898843,3.025287,4.244457
Bi2Cl1In1S4,1.518947,2.2778,2.574756,3.278291
Bi2Cl1Lu1O4,1.146031,2.594838,3.643361,5.218877
Bi2Cl1O4Y1,1.362675,2.643055,3.880061,2.643055
Bi2Cl3Fe1O7Se2,2.146016,3.042019,2.223824,3.14449
Bi2Cl8Hg3S2,2.797775,3.940313,3.235034,3.940313
Bi2Cl8Hg3Te2,2.949577,3.941479,3.098376,4.104003
Bi2Cl8Te7,0.323713,0.616764,0.327906,0.619792
Bi2Cs1Cu1S4,0.596343,1.050985,0.596343,1.050985
Bi2Cs2Mn1S5,1.579843,2.235259,1.708644,2.365547
Bi2Cs2Ni1,0.201797,0.789034,0.840177,1.568605
Bi2Cs2Pd1,0.446626,0.79377,0.788424,1.055447
Bi2Cs2Pt1,0.387039,0.863455,0.879238,2.273231
Bi2Cs2S5Zn1,1.740324,2.37204,1.959473,2.599023
Bi2Cs2Se5Zn1,1.460914,2.034061,1.674394,2.260434
Bi2Cs3I9,2.358788,2.998293,2.640882,3.291278
Bi2Cu1K1S4,0.903043,1.430705,0.903043,1.430705
Bi2Cu1O12Se4,1.738017,3.621105,3.662765,5.059042
Bi2Cu1O4,1.40316,2.967461,2.334871,3.44404
Bi2F1Nb1O5,2.319938,3.611687,2.319938,3.611687
Bi2Fe2Ga2O9,2.319113,3.565717,2.593968,3.747611
Bi2Ga4O9,2.822953,4.154771,3.954185,4.154771
Bi2Ge1O5,2.323103,3.49165,3.231789,4.367816
Bi2Ge1Te4,0.763741,1.163098,0.763741,1.163098
Bi2Ge3O9,2.804077,4.221591,2.804077,4.221591
Bi2Hg1S4,1.114779,1.766267,1.114779,1.766267
Bi2I1La1O4,1.284542,2.023532,4.232544,5.435802
Bi2I1Lu1O4,1.47265,2.264059,4.382792,5.428485
Bi2I1O4Y1,1.418159,2.198565,4.331298,5.370239
Bi2In4S9,1.6104239999999996,2.3864780000000003,2.216304,3.006689
Bi2K3O12V3,2.895307,3.711241,2.932276,3.745009
Bi2K4O5,2.515358,3.463465,2.874072,3.853019
Bi2Li8O10Pd1,0.842867,2.057749,2.40262,3.981733
Bi2Mg1O6,0.024913,0.938504,0.081782,0.938504
Bi2Mn1Ni1O6,0.762703,1.75165,1.476562,1.75165
Bi2Mn1Se4,0.679231,1.1207820000000002,1.524482,2.031452
Bi2Mn1Te4,0.011479,0.197714,0.011479,0.197714
Bi2Mn3O2Sr2,0.639513,1.135146,0.939688,1.135146
Bi2Mo1O6,0.176061,0.811716,1.927276,2.788401
Bi2Mo2O13Se2,2.513506,3.580804,2.547937,3.614556
Bi2Nb2O9Pb1,1.182646,2.290455,2.746013,3.94373
Bi2Nb2O9Sr1,2.416836,3.55252,2.44062,3.582324
Bi2O10Te2W1,2.845804,3.927964,3.178378,4.294989
Bi2O11Ti4,1.9391530000000001,3.231979,2.729216,4.1001
Bi2O12Pd1Se4,1.990862,3.798381,2.150503,3.966916
Bi2O1S2,0.9474099999999996,1.376836,0.9474099999999996,1.376836
Bi2O2S1,0.771016,1.468964,2.847894,3.596726
Bi2O2Se1,0.363497,1.0182650000000004,3.524781,4.300079
Bi2O2Se3Sr2,1.1733320000000003,1.6810729999999996,1.1733320000000003,1.6810729999999996
Bi2O2Te1,0.0,0.280325,0.0,3.302034
Bi2O3,1.548248,2.514611,1.706948,2.68386
Bi2O4,0.959377,1.818855,1.95808,3.136172
Bi2O4Pd1,0.134518,1.577308,1.161271,2.766306
Bi2O4Sr1,2.5280799999999997,3.61926,3.776706,4.975789
Bi2O5Se1,2.799813,3.8900069999999998,3.396384,4.52318
Bi2O5Si1,2.732992,3.893749,3.862708,5.053003
Bi2O5Sr2,2.2472060000000003,3.123458,2.341898,3.249305
Bi2O5Te1,2.30068,3.265469,2.30068,3.265469
Bi2O6Te1,1.24444,2.3204329999999995,3.372219,4.578232
Bi2O6W1,2.047545,3.070564,2.072171,3.070564
Bi2O7Pt2,0.802379,2.049108,0.974672,2.184996
Bi2O7Sn2,2.708654,3.816448,2.938786,4.109856
Bi2O9Sr1Ta2,2.013284,3.306734,3.53459,4.896237
Bi2Pb1S4,1.000497,1.5277580000000004,1.837395,2.419518
Bi2Pb1Te4,0.687912,1.1239870000000005,0.687912,1.1239870000000005
Bi2Pb2Se5,0.622552,1.143615,0.622552,1.143615
Bi2Pb3S6,0.191293,0.572522,0.191293,0.572522
Bi2Pb6S9,0.089123,0.425165,0.089123,0.425165
Bi2S1Te2,0.288479,0.28903,0.419206,0.28903
Bi2S3,1.343032,1.95083,1.788543,2.425182
Bi2Se1Te2,0.207136,0.224866,0.362213,0.224866
Bi2Se2Te1,0.786982,1.308821,1.423139,1.939449
Bi2Se3,0.604029,1.110703,0.89416,1.410478
Bi2Te3,0.035519,0.056063,0.183981,0.056063
Bi3Br1O4,0.891973,1.89042,3.181174,4.280772
Bi3Br1Se4,0.996626,1.54619,1.629554,2.205029
Bi3Cl10Te2,1.305778,1.7844540000000002,2.295096,3.075922
Bi3Cl1O4,2.283421,3.333438,3.45411,4.533221
Bi3Cl5O10Te4,2.402646,3.347724,3.175206,4.256927
Bi3Cs1S5,1.3822010000000002,1.965392,2.259879,2.856459
Bi3Cs1Se5,0.9808539999999999,1.491253,1.917671,2.479706
Bi3Cu1Pb1S6,0.853173,1.397586,0.853173,1.397586
Bi3F6N1,2.791641,3.895533,3.626704,4.765
Bi3Fe1Mo2O12,2.345481,3.376819,2.488716,3.524855
Bi3In5S12,1.315381,2.023042,1.864753,2.626758
Bi3K5Sn1,0.053101,0.056947,0.242209,0.47107
Bi3Mn4N1O15,1.0595,2.00606,1.068379,2.008484
Bi3Na1O10V2,2.633159,3.51774,2.862628,3.770979
Bi3O7Sb1,2.151023,3.255704,3.063585,4.289663
Bi4Br2O9Te2,1.031927,1.809351,1.428991,2.164609
Bi4Br2Ru1,0.537082,1.156307,1.369019,2.054325
Bi4Ce3Pd3,0.2885100000000005,0.6105000000000009,0.327099,0.652706
Bi4Ce3Pt3,0.3287279999999999,0.6963809999999997,0.373655,0.734285
Bi4Cl1O8Ta1,0.948702,2.191785,2.575522,3.829882
Bi4Cs6O9,2.40876,3.431421,2.925045,3.431421
Bi4Cu3O14V2,1.478932,3.331792,1.609285,3.476442
Bi4I2Ru1,0.37877,0.772858,0.637614,1.558322
Bi4Mn1S7,0.804959,1.337257,1.942129,2.556185
Bi4O11Ta2,2.728018,3.869899,2.860029,3.978111
Bi4O12Ti3,1.332181,2.6346460000000005,2.281536,3.668989
Bi4O7,0.89937,1.769728,1.611578,2.570874
Bi4Pb7Se13,0.139055,0.481314,0.139055,0.481314
Bi4Te3,0.0,0.09983,0.0,0.529728
Bi5Cl12Ga3,1.803615,2.3797129999999997,1.903192,2.48377
Bi5Cs3Cu2S10,0.69167,1.292867,0.727872,1.343323
Bi5Cu2K3S10,0.815755,1.453617,0.846283,1.486389
Bi5Cu2Rb3S10,0.774684,1.394133,0.789675,1.432777
Bi5I1O7,2.5613029999999997,3.518401,3.046479,4.017188
Bi6Co1O16S2,2.118129,3.187377,2.242565,3.457764
Bi6Cr2O15,2.248186,3.089151,2.329588,3.174231
Bi6O20Sr1V4,2.877501,3.780552,3.062379,4.014797
Bi7Cs3Se12,0.688163,1.1934109999999998,0.688163,1.1934109999999998
Bi8Cu2Pb6S19,0.701328,1.249988,0.701328,1.249988
Bi8K2Se13,0.761452,1.302117,1.344169,1.922996
Bi9I3Rh2,0.260284,0.551929,0.522952,0.818341
Br,1.302616,2.490226,2.187094,3.486503
Br10Co1Y6,0.1390220000000002,0.7217440000000002,0.58032,0.991517
Br10Ni1Y6,0.28896799999999967,0.9325959999999998,0.672606,1.373062
Br10O1Ta2Te4,0.930531,1.406765,1.81175,2.593725
Br10Pd1Y6,0.37039100000000014,0.804233,0.808654,1.314493
Br10Rb1Re3,0.0,1.4972020000000001,0.0,1.517265
Br11Cs1Nb4,0.29331200000000024,1.130693,0.723854,1.582936
Br11Nb4Rb1,0.289231,1.123122,0.486977,1.308624
Br12Co1Sc7,0.1680600000000001,0.7000519999999999,0.305672,0.817548
Br12Os1Se2,0.112244,1.339505,0.252698,1.50553
Br13Mo6Na1,2.064002,3.095751,2.355917,3.519995
Br16C8Fe3N8,1.882895,2.444739,1.905978,2.444739
Br18C1K4Zr6,1.174285,1.79176,2.133889,2.75313
Br1C1Cl1F1H3,2.480425,4.045727,2.589272,4.180464
Br1C1Cu1H2N2,2.658287,3.6593929999999997,3.151945,4.282298
Br1C1K1N2O4,1.72929,2.589028,1.943159,2.82435
Br1C2Cs1N2Ni1,2.726149,3.367751,3.252634,4.280956
Br1C2N2Ni1Rb1,2.656646,3.274283,3.255594,4.323657
Br1C3H10N1,4.852555,6.125501,5.509131,6.806302
Br1Ca2H3,1.536772,2.5074070000000006,2.043449,3.178889
Br1Ca2N1,2.403572,3.543661,2.403572,5.458322
Br1Cd1S2Sb1,1.523407,2.269105,2.33839,3.103167
Br1Cd2P3,1.059271,1.797724,2.196053,3.003444
Br1Cl1,1.759583,3.040209,2.698231,4.087783
Br1Cl14P3,1.527734,2.6564140000000003,2.151774,3.344252
Br1Cr1O1,0.0,2.668873,0.0,3.284779
Br1Cr1S1,0.480086,1.3748410000000002,0.670191,1.481752
Br1Cr2O4P1,2.185392,3.284625,2.468082,3.58565
Br1Cs1,4.393686,5.530318,4.393686,5.530318
Br1Cs1F4,3.220925,5.007534,3.348369,5.007534
Br1Cs1I2,1.939395,2.8429390000000003,2.086851,3.018044
Br1Cs3Mo2O7,2.67542,3.764898,2.803392,3.765622
Br1Cu1,0.96334,1.860541,6.451093,4.472798
Br1Cu1H6N2,2.532525,3.533932,2.532525,3.533932
Br1Cu1Hg1S1,0.851735,1.663937,1.99273,2.89317
Br1Cu1Hg1Se1,0.788792,1.550904,2.015003,2.86648
Br1Cu1La1Nb2O7,0.0,0.727993,0.0,3.841097
Br1Cu1N4S4,1.155234,1.725427,1.266808,1.864779
Br1Cu1O2Sr2,2.75718,4.093261,4.791346,5.071438
Br1Cu1P4S3,1.93108,2.812057,2.287865,3.204454
Br1Cu1Se2,1.102058,1.793037,1.317983,2.006539
Br1Cu1Se3,1.006788,1.791508,1.383787,2.230034
Br1Cu6P1S5,1.124759,1.945795,1.124759,1.945795
Br1F1Pb1,2.598217,3.594572,2.598217,3.594572
Br1F3,1.809247,3.761772,2.861654,4.797919
Br1F4N1O2,2.514717,4.070758,2.688966,4.256202
Br1F5,3.44207,4.96649,3.689817,5.266113
Br1F5O3Te1,2.750096,4.037035,2.825575,4.145484
Br1F6O2Sb1,2.116767,3.774296,2.476207,3.774296
Br1Fe1O3Sr2,0.713907,1.688029,1.261925,2.649156
Br1H1,1.250968,2.279417,9.747102,11.133559
Br1H2Li1O5,3.871937,5.708536,4.216544,6.060916
Br1H2Na1O5,3.167784,4.651282,3.391916,4.87878
Br1H4N1,4.338025,5.531302,6.919508,8.231804
Br1H4N1O4,3.031429,5.066666,3.031429,5.066666
Br1H6Na1O5,0.0,1.013903,0.0,5.228539
Br1Hf1N1,1.898127,2.854772,3.180192,4.287753
Br1Hg1,2.177314,3.136229,3.745863,4.642822
Br1Hg1I1,2.299373,3.339371,2.834905,3.912828
Br1Hg2N1,0.746155,1.8446729999999998,2.471181,3.666644
Br1Hg2P3,0.948098,1.6127220000000002,1.585749,2.247077
Br1Hg3I1Te2,1.499544,2.285912,1.973541,2.832924
Br1I1,1.22104,2.209218,2.392854,3.518014
Br1I1Pb1,2.453012,3.266368,2.731584,3.579075
Br1In1,1.253511,1.790754,2.391537,2.993571
Br1In1O1,2.056332,3.246533,4.052699,3.246533
Br1In1O3Te1,2.865209,4.161419,3.231497,4.454973
Br1In1S4Sb2,1.44134,2.126604,1.715928,2.458371
Br1In1Sb2Se4,0.966976,1.517262,1.482136,2.056805
Br1In1Te1,1.664929,2.4410990000000004,1.664929,2.4410990000000004
Br1In5S5,1.018851,1.6512569999999998,1.290578,1.954947
Br1In5Se5,0.687334,1.190207,0.969648,1.503883
Br1K1,3.85351,5.021406,6.501854,7.838147
Br1La1Mo1O4,1.599603,2.5613960000000002,1.599603,2.5613960000000002
Br1La1O7Pb6,1.852023,2.729345,2.26715,3.132662
Br1La2S5Sb1,1.474544,1.914395,1.476729,1.917246
Br1La3S8Si2,2.545639,3.689978,2.695096,3.689978
Br1La3Te4,0.053748999999999825,0.47968400000000067,0.538134,0.47968400000000067
Br1Li1,4.933235,6.159084,9.690515,11.000221
Br1Li10N3,1.454781,2.454806,2.761551,3.788362
Br1Lu1Mo1O4,1.801931,2.771136,2.037205,3.015767
Br1Lu1S1,2.77027,3.8851839999999997,2.77027,3.8851839999999997
Br1Mn1S2Sb1,1.653829,2.31445,2.405769,3.130362
Br1Mn1Sb1Se2,1.209135,1.794253,1.948227,2.579785
Br1Mo1S1,0.841488,1.805005,1.531756,2.522206
Br1Mo1Te4,0.871742,1.4337620000000002,0.871742,1.4337620000000002
Br1N1O3,2.244678,3.830204,2.244678,3.830204
Br1N1Sr2,1.896159,2.877611,3.682914,4.715709
Br1N1Ti1,0.514311,1.3965800000000002,0.514311,1.3965800000000002
Br1N1Zn2,2.134203,3.333275,2.134203,3.333275
Br1N1Zr1,1.5209909999999995,2.4657199999999997,2.548613,3.703181
Br1N3,1.924506,3.229206,2.04694,3.326191
Br1Na1,4.120055,5.317755,4.120055,5.317755
Br1O1Rb3,0.290651,1.390246,0.290651,1.390246
Br1O4Tl1,2.828213,4.441692,3.109999,4.761092
Br1O4W1Y1,2.499398,3.550914,2.748317,3.829314
Br1P7Sr2,2.0266180000000005,2.773185,2.203605,2.937734
Br1Rb1,4.326222,5.494126,4.326222,5.494126
Br1Re3S4,1.672853,2.375114,1.918559,2.649599
Br1S1,0.394934,0.96367,0.835421,1.538991
Br1S1Sb1,1.727892,2.452143,2.60359,3.410015
Br1Se2Tl5,0.229379,0.673265,0.229379,0.673265
Br1Te2,0.058314,0.60128,0.235664,0.631939
Br1Te2Tl5,0.076168,0.464591,0.076168,0.464591
Br1Tl1,1.922267,2.670531,1.922267,2.670531
Br25Na1Tc12,1.025414,1.6277440000000003,1.069808,1.688244
Br2C1O3Pb2,2.791424,3.770014,2.791424,3.770014
Br2C1Se4,1.218821,2.1441790000000003,1.669,2.570041
Br2C3O3Ru1,2.184901,3.422576,2.950377,4.226286
Br2C4Cs2N4Pt1,2.277746,3.452147,2.461,3.640228
Br2C4K2N4Pt1,1.967864,3.125002,2.210027,3.384639
Br2C4N4Pt1Rb2,2.016567,3.180404,2.233016,3.411573
Br2C4O4W1,1.806729,2.794236,2.53,3.572086
Br2C6Ca1H24O6,5.216775,6.641112,5.216775,6.641112
Br2Ca1H12O6,4.17453,5.464886,4.17453,5.464886
Br2Ca3O4Si1,1.429576,2.6735189999999998,1.571612,2.887149
Br2Cd1,2.883431,4.079963,3.790332,5.043778
Br2Cd1Sb2Se3,1.070223,1.647126,1.552348,2.138839
Br2Cl2Cr1Cs1H18N6O8,3.719199,5.144037,3.787272,5.2284
Br2Cl2Cu1Rb2,0.924798,2.340987,1.231224,2.692086
Br2Cl6I3Sb1,1.039918,2.14603,1.818452,2.750453
Br2Co1,2.070936,3.552701,2.882219,4.4955
Br2Co1H12O6,2.838113,4.555485,2.838113,4.555485
Br2Co1H4O2,2.498083,4.081756,2.950589,4.686135
Br2Co1H8O4,3.009349,4.660723,3.009349,4.660723
Br2Co1O3Sb2,1.150983,1.798449,1.387642,2.012914
Br2Cr1,2.011127,3.021507,3.881445,4.539811
Br2Cs1F1,1.724457,3.034481,6.03219,7.365886
Br2Cs1F7,2.547349,4.327759,2.547349,4.327759
Br2Cs1Re3S4,1.851611,2.569793,2.039774,2.759148
Br2Cs1Re3Se4,1.436664,2.08875,1.729457,2.39802
Br2Cs1Se4Tc3,1.064603,1.618931,1.22235,1.798586
Br2Cs2F2,2.494445,3.815061,6.245811,7.649069
Br2Cs2H2Hg2I4O1,1.7530680000000003,2.74566,1.7530680000000003,2.74566
Br2Cs2Mn1O6V2,1.779067,2.360785,1.990781,2.595964
Br2Cu1H8O4,1.446663,3.094251,1.473257,3.094251
Br2Cu2O5Te2,1.049517,2.562379,1.451831,2.931141
Br2Cu2O6Sr2Te1,1.685953,3.550751,1.897606,3.946634
Br2Cu3O4Sr2,0.240996,2.269563,2.063829,4.169431
Br2Cu3O6Te2,0.99476,2.75565,1.595506,3.316608
Br2F10Ge1,2.83271,4.67602,3.296932,5.219601
Br2Fe2O5Sr3,2.2777780000000005,3.4845700000000006,2.315856,3.549968
Br2Ge1,2.226122,3.054048,2.738154,3.575812
Br2Ge2S3,2.311383,3.5430639999999998,2.586822,3.781529
Br2H11O6Sc1,4.302421,5.701851,4.445524,6.162469
Br2H12Mg1O6,4.331461,5.622251,6.527266,7.867489
Br2H4Mn1O2,3.727883,4.845456,4.567261,5.576271
Br2Hg1,1.596825,2.641241,2.911576,4.067687
Br2Hg1K2N2O12,1.953443,3.780097,1.953443,3.780097
Br2Hg2O6,2.914231,4.066732,3.104406,4.261604
Br2Hg2S2Sn1,1.795902,2.65285,2.1161,2.990668
Br2Hg3S2,1.491229,2.538608,2.620306,3.744372
Br2Hg3Se2,0.0,2.382034,0.0,2.382034
Br2Hg3Se3Zn1,0.053609,0.248166,0.053609,0.248166
Br2Hg3Te2,1.749473,2.5577110000000003,2.569806,2.5577110000000003
Br2Hg5O4,0.0,0.948088,0.0,0.948088
Br2K4O1,0.910269,2.0507,0.910269,2.0507
Br2Mg1,4.432141,5.650826,6.269924,5.650826
Br2Mn1,3.320979,4.146348,3.782417,4.146348
Br2Mn4O7Si1Te1,2.817967,3.731699,2.865608,3.780596
Br2Mo1,2.165346,3.197112,2.247387,3.276942
Br2Mo1O2,0.875048,1.314745,1.011929,1.453943
Br2Mo2S1,0.998991,1.770854,0.998991,1.770854
Br2N1P1,2.977929,4.336784,3.383952,4.766384
Br2N3S2V1,0.873089,1.50609,1.02403,1.683749
Br2Nb1O1,0.87695,1.843987,2.687643,3.881772
Br2Nb1S2,1.432459,2.416449,1.994307,2.973255
Br2Nb1Se2,0.910678,1.828294,1.634195,2.570408
Br2Ni1,2.470192,3.228254,2.844824,3.674098
Br2O1,1.296958,2.509437,1.481575,2.650866
Br2O11Te4Zr2,2.740422,3.739441,3.099468,4.15967
Br2O11Te6,2.577286,3.5811420000000003,2.577286,3.5811420000000003
Br2O1Rb4,0.481838,1.562655,0.481838,1.562655
Br2O1S1,2.596242,3.763712,2.648052,3.82951
Br2O1V1,0.25460499999999997,0.557554,1.220482,1.668405
Br2O2Pb3,2.315124,3.264473,2.788747,3.758576
Br2O3,1.851882,3.276454,1.924286,3.367798
Br2O5Sb4,2.371508,3.22824,2.903328,3.828309
Br2O6Pb3Te2,2.443613,3.488013,3.250472,4.26844
Br2P4Se3,1.995946,2.9081509999999997,2.239178,3.194647
Br2Pb1,3.023294,3.948022,3.742187,4.684311
Br2Pd1,0.643239,1.953901,1.384246,2.69387
Br2Pd1Se6,0.91143,1.795825,2.124891,3.075591
Br2S7Te1,2.08415,3.022929,2.12768,3.061232
Br2Se2,1.336024,2.269744,1.909932,2.877194
Br2Si1,2.392622,3.374948,2.540062,3.52106
Br2Sn1,2.410908,3.262866,2.410908,3.262866
Br2Sr1,4.315794,5.499852,4.315794,5.499852
Br2Tl1,1.501721,2.414607,1.938895,2.886378
Br2V1,2.921219,3.831564,2.921219,3.831564
Br2W1,2.530572,3.567531,2.620872,3.662666
Br2Zn1,3.820415,4.926518,3.820415,4.926518
Br3C2H8Hg1N1,2.513523,3.676446,3.222992,4.469608
Br3C5Cr1O5P1,2.281119,3.227426,2.356433,3.309283
Br3Cd1Cs1,0.657381,1.8545660000000002,5.140598,6.3839
Br3Cd1H4N1,2.722332,3.957097,3.723726,5.00623
Br3Cd1In1,2.219074,3.10638,2.417397,3.342266
Br3Cd1Rb1,2.704963,3.923859,3.555412,4.818058
Br3Cd1Tl1,2.774199,3.808217,2.974253,4.042435
Br3Cl1Hg6S4,1.527998,2.584285,2.647836,3.783775
Br3Cr1,1.654706,2.697476,1.713808,2.781682
Br3Cr1H9N3,1.949755,3.14986,2.133378,3.389409
Br3Cr1In1,1.558707,2.4823769999999996,1.699519,2.660738
Br3Cs1,2.139607,3.225319,2.218067,3.361972
Br3Cs1Cu1,0.222214,0.492288,0.337671,0.578226
Br3Cs1Cu2,2.224439,3.15534,2.224439,3.15534
Br3Cs1Fe1,2.959468,3.625738,2.984867,3.654366
Br3Cs1Ge1,0.7076389999999999,1.1680929999999998,0.7076389999999999,1.1680929999999998
Br3Cs1Hg1,1.753546,2.705189,2.913208,4.025861
Br3Cs1Mn1,3.055862,3.854599,3.055862,3.854599
Br3Cs1Ni1,2.526312,3.471766,2.722658,3.731961
Br3Cs1Pb1,1.72253,2.3563899999999998,1.72253,2.3563899999999998
Br3Cs1Sn1,0.566589,1.0020629999999997,0.566589,1.0020629999999997
Br3Cu1K2,2.528059,3.4879059999999997,2.528059,3.4879059999999997
Br3Cu1Rb2,2.4898290000000003,3.439788,2.4898290000000003,3.439788
Br3Cu2Rb1,2.257884,3.202719,2.257884,3.202719
Br3Fe1,1.419236,2.363459,1.571643,2.459371
Br3Fe1K1,3.039783,3.92056,3.146633,4.064443
Br3Ga1,3.244798,4.511178,3.538476,4.824582
Br3Ga1Li1,2.935802,3.952743,3.488678,4.555513
Br3Ge1Rb1,1.837385,2.508937,1.837385,2.508937
Br3Hg2Te1,1.849062,2.771243,2.016371,2.771243
Br3Hg3Sb2Tl1,0.640172,1.297701,1.332969,2.039846
Br3In1,2.472097,3.600842,3.215592,4.404018
Br3In1K1,2.233557,3.1708819999999998,2.766329,3.772465
Br3In1Mg1,2.077431,2.7659589999999996,3.324752,4.144417
Br3Ir1Te6,1.146607,1.738082,1.56277,2.180542
Br3La1,3.05184,4.656768,3.142167,4.656768
Br3Li6N1,2.258235,3.387161,4.329437,5.515736
Br3Mn1Rb1,3.581077,4.619567,4.22269,5.141715
Br3Mo1,0.874668,2.546739,0.9567,2.629418
Br3Mo1Te6,0.0,0.020622999999999614,0.0,0.020622999999999614
Br3N3S4,1.8006540000000002,2.793107,1.829888,2.825866
Br3Nb1O1,1.825178,2.854437,1.825178,2.854437
Br3Nb1Se1,0.67852,1.68641,0.957908,1.982354
Br3Nb1Te1,0.557101,1.5178899999999997,0.883846,1.85816
Br3Ni1Rb1,2.429373,3.374182,2.688799,3.705241
Br3P1,3.156849,4.247242,3.42678,4.54135
Br3Rb1V1,3.058973,3.946447,3.170321,4.074438
Br3Rh1,1.274089,2.589921,1.691078,3.038226
Br3Rh1Te6,1.160186,1.7455819999999997,1.466123,2.060977
Br3Ru1,0.07624000000000009,1.1914740000000001,0.72148,1.924495
Br3Sb1,0.813971,0.979291,0.973762,1.134591
Br3Si1,3.877181,5.052813,4.710505,5.870426
Br3Tc1,0.236283,1.288673,0.377391,1.92553
Br4C1N2S3,1.279214,2.271872,1.294122,2.28929
Br4C4Fe1H12P1,1.94878,3.170543,2.290695,3.295517
Br4Cd1Cs2,3.3189710000000003,4.503569000000001,3.3189710000000003,4.503569000000001
Br4Co1Rb2,2.442985,3.98073,2.442985,3.98073
Br4Cs1Tl1,1.75257,2.792551,1.991416,2.792551
Br4Cs2Hg1,2.385545,3.496664,2.385545,3.496664
Br4Cs2I2Pd1,0.171213,0.859778,1.185867,1.979872
Br4Cs2Mn1,3.60818,4.676778,3.60818,4.676778
Br4Fe1Li2,2.644102,3.429566,3.295677,3.429566
Br4Fe3O4Sb2,2.227242,2.664384,2.460207,2.884961
Br4Ga1In1,2.750178,3.715528,2.958372,3.941371
Br4H10O5Sn1,2.158262,3.307188,2.158262,3.307188
Br4I2Pd1Rb2,0.65462,1.472312,1.440826,2.519715
Br4In1K1,2.757341,3.970493,2.757341,3.970493
Br4In1Na1,2.755391,3.950518,3.315636,4.541016
Br4K1Tl1,1.579062,2.626213,1.579062,2.626213
Br4K2Pd1,1.189384,2.543317,4.841551,6.317402
Br4K2Pt1,1.469488,2.793699,4.357886,5.809487
Br4Li2Mn1,3.779299,4.783265,4.272675,5.205774
Br4Mn1Rb2,2.737216,3.668277,4.09095,4.953117
Br4Nb1,0.849779,1.816794,1.263609,2.282147
Br4Nb1O1Tl1,1.171087,1.949592,2.020697,2.785047
Br4O1Rb6,1.530168,2.66493,3.372714,4.47123
Br4O1W1,1.013702,1.719492,1.446247,2.045941
Br4Os1,0.068756,1.12313,0.124877,1.12313
Br4Os1Y4,0.6947999999999999,1.2764170000000004,0.846579,1.430357
Br4Pd4Te3,0.646534,1.4262399999999995,1.079747,1.952246
Br4Re1Te2,2.012821,2.834694,2.136427,2.955032
Br4S1Tl6,1.787729,2.438695,1.787729,2.438695