material formula,Band_gap_GGA,Band_gap_HSE,Band_gap_GGA_optical,Band_gap_HSE_optical
As6O24Sr1Zr4,4.182804,6.056233000000001,4.328308,6.200064
As6Pt4Sr1,0.1276199999999994,0.4542099999999998,1.024878,1.469616
As6Rb4,0.366982,0.896962,0.777854,1.048985
As6Sn2Sr5,0.06734700000000027,0.581871,0.462985,0.975882
As8S9,1.543938,2.339422,1.543938,2.339422
Au1Ba4C4K1O4,2.656388,3.977757,3.50948,4.989913
Au1Ba4Na1O8,1.547656,3.221713,2.239982,4.003008
Au1Bi1Br6,1.194791,2.079914,1.431879,2.366697
Au1Bi1Cl6,1.691884,2.745784,1.874136,2.967029
Au1Bi1K2,0.834525,1.328635,1.335925,1.9315
Au1Bi2Na1O5,0.85278,1.746047,1.41734,2.343156
Au1Bi5Na2O11,0.93379,1.838488,2.20547,3.305789
Au1Br1F6,2.001047,3.810548,2.001047,3.810548
Au1Br1Se1,0.560992,0.949673,1.111657,1.639891
Au1Br3,0.841263,1.610962,1.121722,1.931792
Au1Br3Cs1,0.677814,1.109487,3.00842,3.996007
Au1Br3Rb1,0.59734,1.013304,3.180083,4.186664
Au1Br4K1,1.019072,1.986434,1.529889,2.551031
Au1Br4Rb1,1.511983,2.511685,1.658362,2.605662
Au1Br8Te1,0.857678,1.784248,1.284159,2.26054
Au1C1Cl3S2,1.936776,2.942705,2.046583,3.037256
Au1C1N1,1.616293,2.539361,5.441616,6.663574
Au1C2Cs1,1.923176,2.789427,3.339726,4.383125
Au1C2Cs1N2S2,2.93377,4.121359,3.1167,4.218513
Au1C2K1,1.924609,2.777772,3.918767,5.078483
Au1C2K1N2,2.800109,3.870918,2.800109,3.870918
Au1C2K1N2S2,2.384269,3.505802,2.554263,3.586175
Au1C2Li1,1.380599,2.24461,5.284979,6.694664
Au1C2N2Rb1S2,2.650401,3.798891,2.793129,3.871012
Au1C2Rb1,2.081914,2.97581,3.67057,4.774156
Au1Ca1P1,0.0,0.05690699999999982,0.0,0.340261
Au1Cd1Cs1S2,2.085874,3.087286,3.536,4.706666
Au1Cd1Rb1S2,2.001549,2.962098,2.975834,4.071966
Au1Cl1,1.884591,3.026988,1.884591,3.026988
Au1Cl1O1,1.078549,2.265219,1.56278,2.799548
Au1Cl1O3Se1,1.408009,2.598791,1.951841,3.188954
Au1Cl3,1.318796,2.518383,1.456647,2.661834
Au1Cl3Cs1,0.822589,1.368585,3.695518,4.817177
Au1Cl4Cs1,1.954318,3.188478,2.016747,3.255424
Au1Cl4H2K1O2,0.841929,2.547499,0.841929,2.547499
Au1Cl4K1,0.0,2.837226,0.0,2.933227
Au1Cl4N5S5,1.725402,2.564893,2.254289,3.156023
Au1Cl4P1,2.292197,3.4698070000000003,2.292197,3.4698070000000003
Au1Cl4Rb1,1.972506,3.189251,2.127802,3.370682
Au1Cl4Tl1,1.682988,2.702188,1.755658,2.77446
Au1Cl5S1,1.7882909999999999,2.889338,1.937403,3.060952
Au1Cl7S1,1.364708,2.040331,1.442328,2.140225
Au1Cl7Se1,1.341639,2.000111,1.373285,2.049343
Au1Cl7Te1,1.413294,2.554817,1.501453,2.652711
Au1Cl8P1,1.880329,3.0784260000000003,1.985715,3.212188
Au1Co1Na4O5,1.877402,3.543667,2.046803,3.543667
Au1Cr1S2,0.472664,1.4154499999999999,1.857614,2.818251
Au1Cs1F4,2.509354,4.459158,2.757068,4.73382
Au1Cs1I3,0.732307,1.086566,2.566905,3.401481
Au1Cs1I4O12,2.1959370000000002,3.505704,3.427117,3.505704
Au1Cs1K2O2,2.155882,3.363109,2.678675,3.89309
Au1Cs1O1,1.340368,2.546282,2.669061,2.546282
Au1Cs1S1,1.86445,2.79537,2.846722,3.810596
Au1Cs1Se1,1.708963,2.615133,2.789425,3.709985
Au1Cs1Te1,1.219491,1.9038970000000002,1.219491,1.9038970000000002
Au1Cs2P1S4,1.996937,3.013155,1.996937,3.013155
Au1Cs3Ge4,0.9304390000000002,1.3123699999999998,1.877233,2.364946
Au1Cs3O1,1.412157,2.397937,2.132017,3.13606
Au1Cs3Sn4,0.7187839999999999,1.032374,1.479288,1.875767
Au1Cu1F5,1.355353,3.1159,2.289882,3.1159
Au1Cu1Se4,0.038204,0.523343,1.147273,1.761191
Au1F12P2Sb1,3.697095,5.1224039999999995,3.914526,5.369834
Au1F12Sb2Xe2,0.521172,2.085015,3.667833,5.491733
Au1F16H4Sb2,0.893057,3.215507,2.813982,5.051848
Au1F4K1,2.431872,4.388847,2.652903,4.630853
Au1F4Li1,2.195804,4.14487,2.274685,4.233009
Au1F4Na1,2.129366,4.054888,2.129366,4.515553
Au1F4Rb1,2.520906,4.487896,2.688594,4.672362
Au1F5,0.867788,2.749379,0.903686,2.749379
Au1F6K1,2.106869,4.076593,2.484624,4.49112
Au1F6Li1,2.020094,3.961682,2.020094,3.961682
Au1Ge4K3,0.807175,1.240362,0.964981,1.396986
Au1Ge4Rb3,0.905669,1.3108099999999998,1.730829,2.211019
Au1I1,0.644085,1.33036,2.036813,2.780032
Au1I1Te1,1.001674,1.530521,1.295159,1.865731
Au1I2K5O2,1.889185,3.140855,1.889185,3.140855
Au1I3K1,0.685931,1.114714,0.805341,1.227266
Au1I3Rb1,0.663081,1.02459,2.75906,3.624429
Au1I4K1,0.58897,1.246411,1.107013,1.856514
Au1I4K1O12,2.273269,3.5672889999999997,3.390132,3.5672889999999997
Au1I4Li1,0.665501,1.2463110000000002,1.142055,1.827374
Au1I4Na1O12,2.023751,3.2717189999999996,2.203011,3.470676
Au1I4O12Rb1,2.24043,3.54109,3.419512,3.54109
Au1K1N4O12,2.162459,3.634217,2.179081,3.634217
Au1K1Na2O2,2.113748,3.473534,2.736967,4.035299
Au1K1O2,1.120963,2.726739,6.125936,7.980167
Au1K1O8S2,1.569846,2.935392,1.896843,2.935392
Au1K1P1Se3,0.931467,1.770042,1.208447,2.087872
Au1K1P2S7,1.590255,2.50753,2.041538,2.981277
Au1K1S1,2.035948,2.993937,2.908133,3.911434
Au1K1S5,1.762406,2.691395,2.046949,3.000868
Au1K1Se1,1.802508,2.726365,2.785867,3.770564
Au1K1Se2,0.9037160000000002,1.6814040000000001,2.076028,2.987647
Au1K1Se5,1.05729,1.7953569999999999,1.46198,2.206218
Au1K2P1,0.927868,1.5279380000000002,0.927868,1.5279380000000002
Au1K2P1S4,1.337492,2.274541,1.337492,2.274541
Au1K2Sb1,0.982199,1.5187709999999999,1.501522,2.168243
Au1K3O1,0.491721,1.453293,3.624865,4.773403
Au1K3P2Se8,1.178519,2.037549,1.178519,2.037549
Au1K3Se13,0.6979040000000001,1.374309,1.180737,1.966753
Au1K3Se2,2.041143,3.001868,3.077287,3.969688
Au1K3Sn4,0.220214,0.34322600000000003,0.3096,0.432136
Au1K5P2,0.473054,1.089631,1.441111,2.069972
Au1La1O3,1.828872,3.410112,1.84558,3.429568
Au1La2O1P2,0.0,0.222347,0.0,1.275227
Au1La4Li1O8,1.731596,3.223791,4.26889,3.223791
Au1Li1O14S4,2.076122,3.487422,6.022181,8.132605
Au1Li1S1,1.432506,2.21018,1.432506,2.21018
Au1Li3O3,1.966815,3.453556,2.309509,3.821938
Au1Li3S2,2.059993,2.916922,2.059993,2.916922
Au1Lu1Sn1,0.0,0.10564700000000027,0.0,2.268812
Au1N12Rb1,1.576077,2.650955,1.738518,2.762361
Au1N5O14,1.357813,3.289021,1.391526,3.289021
Au1Na1O14S4,1.989009,3.4575569999999995,2.020815,3.489618
Au1Na1O2,0.999177,2.601332,2.320122,4.041002
Au1Na1O8S2,1.834274,3.299906,1.906753,3.299906
Au1Na1Se2,0.923284,1.5796009999999998,1.725842,2.4233
Au1Na1Te1,0.0,0.018523000000000067,0.0,0.346047
Au1Na2O2Rb1,2.152498,3.547528,2.815115,4.111247
Au1Na2Sb1,0.372999,0.788764,1.863991,2.556394
Au1Na3O2,1.924461,3.078395,1.924461,3.078395
Au1Na3S2,2.383072,3.428259,3.167733,4.334383
Au1Na5Se12,1.023023,1.685916,1.121879,1.818953
Au1O1Rb1,1.425462,2.729075,3.06063,4.45667
Au1O1Rb3,0.067811,0.980242,2.795638,3.830741
Au1O2Rb1,1.539092,3.146289,2.730134,4.459371
Au1O2Sc1,1.794075,3.054355,2.771866,3.054355
Au1O2Y1,2.678867,3.708513,2.678867,4.29835
Au1O4P1,1.764851,3.315397,1.764851,3.315397
Au1O8Rb1S2,1.849617,3.245776,6.2641,8.310962
Au1O8Rb1Se2,1.48912,3.010188,4.122903,6.33931
Au1P1S4,1.168423,2.045965,1.996917,3.009977
Au1P1S4Tl2,1.112303,1.94791,2.304072,3.28458
Au1P1Se3Tl1,0.86996,1.685198,1.338014,2.203475
Au1Pb4Rb3,0.406297,0.696387,0.425935,0.730657
Au1Rb1S1,1.944396,2.895316,2.763335,3.726848
Au1Rb1Se1,1.724271,2.633783,2.651285,3.569767
Au1Rb1Te1,1.043368,1.704513,1.043368,1.704513
Au1Rb2S4Sb1,1.295344,2.179053,1.52029,2.450882
Au1Rb3Sn4,0.578688,0.868264,1.309236,1.653529
Au1Sc1Sn1,0.133332,0.293578,1.565854,2.085906
Au2Ba1F12,1.312852,3.236834,1.394586,3.320862
Au2Ba1F8,2.560197,4.521498,2.560197,4.521498
Au2Ba1O16S4,1.921568,3.384257,2.132093,3.655544
Au2Ba1O4,1.541274,3.00338,1.819742,3.841571
Au2Ba1P4,0.23797800000000002,0.7246999999999995,1.243311,1.781773
Au2C6H6N4Sn1,2.301869,3.224462,2.842648,3.926592
Au2Ca1F12,1.666213,3.632215,1.666213,3.632215
Au2Ca1O4,1.737274,3.238403,1.737274,3.238403
Au2Cd1F8,1.829518,3.718301,1.829518,3.718301
Au2Cs1F7,1.852036,3.77274,1.968884,3.894392
Au2Cs2S4Sn1,1.958539,3.035458,2.725305,3.844223
Au2F12Hg1,1.533895,3.433077,1.533895,3.433077
Au2F19Sb3Xe2,0.856352,1.307567,3.157843,4.332849
Au2F8Hg1,1.599589,3.414239,1.599589,3.414239
Au2F8Mg1,2.010805,3.944396,2.299866,4.261629
Au2F8Ni1,1.761301,3.567521,2.135626,4.029295
Au2F8Pd1,0.719501,2.945376,0.878098,2.945376
Au2F8Zn1,1.708034,3.646232,2.243596,4.23331
Au2I1K6Na1O8,1.861366,3.190362,2.737664,4.029394
Au2K2S4Sn1,1.574939,2.539877,2.112023,3.136555
Au2O10Se3,1.106781,2.568096,1.69924,3.242677
Au2O11Se4,1.612117,2.859101,1.984991,3.277138
Au2O3,0.889209,2.330739,1.805332,3.406929
Au2O4Sr1,1.656346,3.160557,2.057865,3.805288
Au2O7Se2,1.311427,2.849572,1.860852,2.849572
Au2O8Sr5,1.361571,2.852288,1.361571,2.852288
Au2P3,0.0,0.139757,0.0,1.621475
Au2S1,2.009329,3.011456,2.009329,3.011456
Au3C6Cs2N6Na1,2.419078,3.469974,2.419078,3.469974
Au3C6K1N6Ni1,2.351288,3.306927,2.351288,3.306927
Au3Cl8Rb3,0.8569,1.434994,0.8569,1.434994
Au3Cs1S2,2.241497,3.050077,2.394122,3.225197
Au3Cs1Se2,2.242462,3.054615,2.509831,3.339174
Au3F12La1,2.081249,4.237798,2.081249,4.237798
Au3F18Sb2,0.12722,2.106854,0.633108,2.776052
Au3F8,0.567693,2.671098,0.739286,2.984017
Au3Ge1Na1,0.040562,0.09462700000000002,0.561904,0.687729
Au3K3Sb2,1.104767,1.603202,1.104767,2.394057
Au3La3Sb4,0.5791570000000004,0.9094239999999996,1.102861,1.558368
Au3Lu3Sb4,0.5628839999999995,1.0003509999999993,1.209512,1.672821
Au3Na1Si1,0.021943,0.16515500000000038,0.670793,1.013888
Au3O2Rb5,0.72527,1.798625,1.214933,2.294547
Au3P7Sn1,0.0,0.444642,0.0,1.44524
Au3Rb1Se2,1.837233,2.656106,2.458216,3.284786
Au3Rb3Sb2,1.194038,1.7153360000000002,1.194038,1.7153360000000002
Au3Sb4Y3,0.5935969999999999,0.9600020000000002,1.237925,1.678033
Au4Cd1K2S4,2.024458,2.950499,2.813338,3.907519
Au4Cl8,0.942917,1.634022,1.206042,1.943692
Au4S3Tl2,1.073826,1.6732339999999999,1.073826,1.6732339999999999
Au5Cs7O2,0.7678629999999997,1.8160649999999998,1.782003,2.904444
Au5O2Rb7,0.559758,1.565381,1.919188,3.021207
Au6Cs4S5,2.302113,3.1505650000000003,2.764168,3.650814
Au6K4S5,1.528906,2.4582330000000003,3.031606,2.4582330000000003
Au6Rb4S5,1.643153,2.571088,1.643153,2.571088
Au7I1P10,0.495531,1.0879399999999997,1.783876,2.55402
B,1.466033,2.080083,2.82191,3.603258
B0.25Ga0.75N1,2.266802,3.54587,3.926772,5.1087
B0.667N0.667,4.294329,5.636532,4.582455,6.009207
B10F12,3.289313,4.528249,3.289524,4.528662
B12C2Mg1,2.14566,2.947924,4.014168,5.02512
B12C3,1.506964,2.486434,2.398982,3.54311
B12Ni1,0.461911,0.862473,0.791202,1.394782
B12P2,2.476388,3.44227,4.415752,5.492972
B13C2Li1,2.558192,3.4033469999999997,3.733543,4.836982
B15Na1,0.0,0.572054,0.0,2.228837
B17F27,2.584042,3.92806,2.595281,3.938675
B1Ba1Bi1S4,1.914521,2.643864,2.531027,3.339819
B1Ba1Li1S3,2.143491,3.116245,2.143491,3.116245
B1Ba1S4Sb1,2.344615,3.118859,2.630561,3.428252
B1Ba2Br1O3,3.3341719999999997,4.739214,4.465229,5.986304
B1Ba2Cl17Zr6,1.076435,1.740802,1.980734,2.668495
B1Ba3O3P1,1.377845,2.20948,2.144463,2.947201
B1Be2Cs1F2O3,5.98345,7.7012529999999995,7.623498,9.45663
B1Be2F1O3,6.342143999999999,8.096962999999999,6.342143999999999,8.096962999999999
B1Be2F2K1O3,6.0444,7.8290489999999995,7.970698,10.012613
B1Be2F2O3Rb1,5.913578,7.676974,7.890135,9.859311
B1Bi1O4Pb1,2.742555,3.763234,3.280976,4.300592
B1Br1N2Sr2,2.407021,3.505882,4.454928,5.657477
B1Br2Cl3N1P1,2.944585,4.331217,2.973585,4.37614
B1Br3,3.766275,5.092757,4.006266,5.368581
B1Br3I3P1,1.915876,2.926874,2.160155,3.183644
B1Br3P4S3,2.640626,3.663923,2.69462,3.689242
B1Br6P1,2.692765,3.925202,2.692765,3.925202
B1C1Ca3Cl2N1,2.158896,3.15312,2.158896,3.15312
B1C1Cl2N1Sr3,1.93811,2.811273,1.93811,2.811273
B1C1Li1,0.8284580000000004,1.631329,8.509543,3.977921
B1C2F2Li1O4,3.704383,5.525023,3.894356,5.740325
B1C2F4H6N5,4.304180000000001,5.6892000000000005,4.517779,5.90208
B1C2N1,2.089426,3.302521,2.089426,3.302521
B1C3.33N1,0.246175,0.665159,0.575076,0.863153
B1C3F4H10N1,7.620024,9.821159,8.594485,10.867703
B1C3H12N1,6.226490999999999,7.61386,7.480128,8.936574
B1C3K2N3,2.454922,3.434521,2.627435,3.434521
B1C4Cr1F5H6N2,3.2827070000000003,4.461728,3.873802,4.813822
B1Ca1H1O3,5.12228,6.797116,6.195762,6.797116
B1Ca2F1N2,2.969062,4.126163,2.969062,4.126163
B1Ca3N3,0.562482,1.253422,1.67567,2.741184
B1Cd1Cs1O3,1.680984,3.23732,3.992558,5.637551
B1Cd1Li1O3,2.123389,3.737309,5.481066,7.42996
B1Cl1Cu1H4O4,1.478966,3.447303,6.967308,8.469073
B1Cl1F4O2,1.997817,3.822364,1.997817,3.822364
B1Cl1N2Sr2,2.757595,3.848053,3.824619,5.02236
B1Cl3,4.70514,6.224006,4.968733,6.537364
B1Co1Fe1O4,1.166901,2.095114,1.364284,2.287371
B1Co2Fe1O5,1.020304,2.167551,1.08011,2.175712
B1Cr1O3,2.098716,3.738283,2.584921,4.253247
B1Cr1O4Pb1,2.138428,3.328646,2.394059,3.764783
B1Cr2O12P3,3.0550990000000002,4.765198,3.138696,4.875158
B1Cr3O6,1.404756,3.0875990000000004,1.404756,3.0875990000000004
B1Cs1Se3,1.616093,2.623395,1.856715,2.853429
B1Cs3P2,1.764761,2.443949,2.226835,2.922143
B1Cs3S3,2.512959,3.5295349999999996,2.924831,3.978807
B1Cu1S2,1.954799,2.750642,1.954799,2.750642
B1F1N2Sr2,2.60323,3.668372,2.60323,3.668372
B1F1O4Pb3,2.211115,3.232053,2.211115,3.232053
B1F3,8.178104,10.535985,9.491175,12.125443
B1F3Mg3O3,5.449495000000001,7.368485,7.22579,9.204338
B1F4H2N3S3,0.890754,1.03451,1.143307,1.379629
B1F4N1O2,2.999151,5.368633,3.004814,5.36929
B1Fe1O3,2.216142,3.534261,2.335573,3.534261
B1Fe1O4Pb1,2.404852,3.484274,2.500395,3.612734
B1Fe2O12P3,2.569022,4.016504,2.626893,4.043033
B1Fe3O6,1.956664,3.29308,2.013339,3.29308
B1Ga1H3Na1O10P2,3.559912,5.459705,5.23176,7.284777
B1Ge1Li1O4,2.523743,4.383877,6.59267,8.591862
B1Ge3H4N1O8,2.885582,4.7073279999999995,4.29015,6.227261
B1H2O2,4.699418,6.374635,4.939886,6.6095
B1H3,5.133896,6.706451,6.227211,7.956201
B1H3In1Na1O10P2,3.9678160000000005,5.883533,3.9678160000000005,5.883533
B1H4K1,1.165191,2.136845,2.812515,3.76601
B1H4Na1O4,5.227104000000001,7.099796,6.911834,8.830791
B1H6N1,4.888804,5.610671,5.352455,6.066871
B1H8N1,5.52986,6.86109,5.52986,6.86109
B1I1N2Sr2,2.550596,3.612717,3.619628,4.667067
B1I3,2.569204,3.603531,2.899101,3.991823
B1In1O3,2.54459,4.24413,4.81074,6.648291
B1K1N2Na2,1.894524,2.988832,4.78535,6.058329
B1K1Na2O3,2.957202,4.576751,4.623215,6.283365
B1K1S2,2.729172,3.807364,2.734787,3.813474
B1K2Na1P2,1.811311,2.515983,2.352161,3.047199
B1K3O13Sb4,1.885484,3.497763,2.86908,4.571235
B1K3P2,1.665719,2.345078,2.685901,3.440933
B1K3S3,2.685765,3.764047,2.940258,4.039674
B1La1N2,2.172052,3.2936639999999997,2.785268,4.147563
B1La1O5Si1,4.295437,7.056425000000001,4.328892,7.056425000000001
B1La3N2O3,1.193137,2.15246,1.193137,2.15246
B1La6N3O6,1.106505,2.090934,1.716669,2.747485
B1Li1Mn1O3,2.635879,3.924501,4.085136,3.924501
B1Li1S3Sr1,2.386337,3.44892,2.78207,3.85816
B1Li1Si2,1.13541,1.650665,1.355985,1.932384
B1Mg3N3,1.400351,2.503222,1.400351,2.503222
B1Mn1O4Pb1,0.567353,1.654766,0.99872,2.185344
B1N1,4.424409,5.760974,8.819935,10.576119
B1N2Na3,1.742243,2.82153,3.530798,4.648356
B1Na1S2,2.462787,3.4973959999999997,2.468008,3.50189
B1Na2O3Rb1,3.094148,4.733369,4.946919,6.644088
B1Na3O3,3.121383,4.776948,5.196662,6.898276
B1Na3S3,2.556167,3.6550380000000002,3.710799,4.923199
B1Nb1Ni2O6,3.079327,4.069008,3.126234,4.069008
B1Nb1O4,2.628821,4.115337,3.700042,5.285636
B1O3P1Sr3,2.08615,2.945028,2.962898,3.877408
B1O3Tl3,1.263654,2.086204,2.189373,2.987218
B1O3V1,1.654083,2.67598,2.246492,3.343713
B1P1,1.235905,1.973924,3.397626,4.345886
B1P1S4,2.098655,3.257739,3.921738,5.080584
B1P2Rb3,1.622366,2.304322,2.716002,3.463512
B1Rb1S2,2.807025,3.891261,2.80903,3.893559
B1Rb1Se3,1.492367,2.488254,1.857362,2.860547
B1Rb3S3,2.622503,3.651901,2.992034,4.085866
B1S2Tl1,1.726452,2.476916,2.646251,3.482824
B1S3Tl3,1.087843,1.650128,1.629017,2.220818
B1Se3Tl1,0.852864,1.6856120000000003,1.670147,2.558622
B1Se3Tl3,1.036489,1.576114,1.469527,2.031432
B2Ba1Cu1O5,1.653041,3.728882,5.337838,6.94643
B2Ba1Hf1O6,4.770865,6.524745,4.770865,6.524745
B2Ba1O6Ti1,2.277348,3.853531,2.615107,4.166914
B2Ba1S4,2.672353,3.6656190000000004,3.639722,4.716532
B2Ba1Se6,1.601147,2.528031,2.066845,3.060142
B2Ba2Cd1O6,3.0790319999999998,4.790811,3.0790319999999998,4.790811
B2Ba3N4,2.523699,3.537333,3.056603,4.110604
B2Ba3O12Ti3,2.034423,3.372639,2.626591,4.076579
B2Ba4N4O1,2.815286,3.848705,3.47761,4.512983
B2Be1C2,0.20786999999999978,1.1143450000000001,2.516094,3.622798
B2Be2Ca1F1K1O6,5.256318,7.025251000000001,6.761661,8.630353
B2Be2F1K1O6Sr1,4.899457,6.641469000000001,6.528873,8.428798
B2Bi2O7Sr1,2.794704,3.881219,2.980733,4.075995
B2Bi2O7Zn1,2.537999,3.630702,3.874015,5.053956
B2C2Ca1,0.46082599999999996,1.0381900000000002,2.328846,3.166424
B2C2Mg1,1.018841,1.9051140000000002,1.405984,1.9051140000000002
B2C8Cu1N8,2.484428,4.593719,5.285397,6.897131
B2C8Hg1N8,4.561948,6.380966,5.532299,7.359566
B2Ca1O6Sn1,3.766657,5.529825,6.526003,8.520566
B2Cd1H8,3.7074749999999996,5.130492,3.7074749999999996,5.130492
B2Cd2O5,2.434032,4.135458,4.61457,6.456749
B2Cd3O6,1.445896,3.063862,1.445896,3.063862
B2Cl4,2.79076,4.131339,2.79076,4.131339
B2Co1O4,2.639487,4.452521999999999,2.81184,4.645158
B2Co2O5,2.575923,4.346667,2.713458,4.504847
B2Co3O6,2.013326,4.065352,2.052411,4.069595
B2Cu1O6Pb2,1.559269,3.392847,1.87148,3.392847
B2Cu1O6Sr2,1.508966,3.57785,1.760089,3.825938
B2Cu2O6Sr1,1.546543,3.657776,2.020641,4.107569
B2F4,4.872491,6.783174,5.057282,6.987019
B2Fe1O4,2.810311,3.18469,3.002012,3.18469
B2Fe2K2O7,2.875955,4.443747,2.933462,4.518243
B2Fe2O5,2.959076,3.5168220000000003,3.282143,3.793352
B2H10Li1N2Na1,4.096051,5.564237,5.244313,6.691656
B2H8Mg1,5.435458,6.674404,5.435458,6.674404
B2H8Mn1,4.433354,5.386055,5.123346,6.178637
B2Hg3O6,2.371501,3.576992,3.861506,5.399001
B2K1O6Sb1,2.79053,4.517202,5.109959,7.118052
B2K2O6Zr1,3.4638570000000004,5.22988,3.4638570000000004,5.22988
B2K2S7,2.509638,3.720739,2.719781,3.942854
B2K2Se7,1.629806,2.6343829999999997,1.865612,2.887725
B2K3Nb3O12,1.86739,3.211856,1.86739,3.211856
B2K3O12Ta3,2.662993,3.998107,3.958333,5.3828
B2Li2S5,2.346836,3.395574,2.529393,3.692922
B2Li2Se5,1.598182,2.4287540000000005,2.342858,3.238879
B2Lu2Na2O10Te1,2.84761,4.431595,3.625346,5.238026
B2Mg3Mn3O10,0.586254,1.558339,0.699907,1.651095
B2Mn1O6Sn1,2.754372,3.961015,4.199866,5.476236
B2Mn3O6,3.000507,4.225276000000001,4.44637,5.555644
B2Na2O10Te1Y2,2.907144,4.453641,3.624052,5.206133
B2Na2S5,2.5202,3.6456959999999996,2.546228,3.6456959999999996
B2Na2Se7,1.473463,2.4300420000000003,1.978694,2.970496
B2Ni1O4,3.684417999999999,4.86816,3.685926,4.86816
B2Ni3O6,3.1482100000000006,3.9859090000000004,3.489126,4.418942
B2O3,6.275606,8.271057,7.390448,9.453379
B2O5Pb2,2.731967,3.8281989999999997,3.555379,4.718046
B2Rb2Se7,1.700963,2.7152689999999997,1.919059,2.932739
B2S3,2.338541,3.317452,2.734445,3.774141
B2S4Sr1,2.8973179999999994,3.9424140000000003,3.094908,4.157665
B2S6Sr3,2.302626,3.311553,2.394194,3.417486
B2Se7Tl2,1.250415,2.101559,1.656903,2.518602
B3Ba1Li1S6,2.7934,3.852055,3.042732,4.122427
B3Ba4N6Na1,2.068366,3.103493,2.553738,3.664241
B3Bi1Cd4O10,2.211878,3.483629,3.715861,4.984809
B3Bi1O6,3.9687819999999996,5.147045,4.862195,6.160532
B3Ca4Li1N6,2.209524,3.291893,3.42819,4.825449
B3Cl6N3,2.702287,4.2478,4.63288,6.280129
B3Cs1H12Sr1,5.8782890000000005,7.223882,6.634804,7.958792
B3Cs1O9Zn4,3.567199,4.965565,5.826325,7.264295
B3Cu1Li3O7,2.079822,4.256836,2.134649,4.312181
B3D12Y1,4.516678,5.864014000000001,4.516678,5.864014000000001
B3H12N1,5.441538,6.773887,6.062818,7.443012
B3H15N1Y1,4.596995,5.929290999999999,6.139694,7.54249
B3H3O14Zn8,3.191678,4.434277,5.396595,6.697749
B3H5,3.703941,4.783506,3.703941,4.783506
B3H8Na1,5.1385179999999995,6.360742999999999,5.1385179999999995,6.360742999999999
B3K1O9Zn4,3.476989,4.87848,6.304427,7.82201
B3Li1N6Sr4,2.087891,3.173982,3.37846,4.605967
B3Li1S6Sr1,2.872698,3.938418,3.077841,4.149549
B3N6Na1Sr4,1.987324,3.06186,3.355056,4.57625
B3O9Rb1Zn4,3.48062,4.884085,6.130076,7.615003
B4Bi1H3O9,4.215085,5.482347,4.995846,6.293942
B4Bi2Cu5O14,1.056419,3.025051,1.356234,3.342927
B4C1,1.508752,2.488397,2.398117,3.541708
B4Cl4,3.109481,4.197987,3.262364,4.337953
B4Cr1Y1,0.1630919999999998,0.6063689999999999,0.724742,1.392285
B4Cu1Li2O10Pb2,1.941246,3.947817,1.941246,3.947817
B4Cu1Li6O10,2.019762,4.138991,5.504987,7.221981
B4Cu1Lu2O10,1.648458,3.680759,5.008265,6.748188
B4H16Zr1,5.159096,6.301959,5.594558,6.301959
B4Hg1O7,1.967995,3.556534,2.540486,4.241025
B4Mg1,0.390426,0.706402,0.943122,1.290734
B4Mo1Y1,0.2350519999999996,0.6493710000000004,0.949285,1.454575
B4Ni1O7,3.5379890000000005,4.796073,3.584917,4.796073
B4W1Y1,0.20384899999999995,0.4578420000000003,0.402762,0.646484