material formula,Band_gap_GGA,Band_gap_HSE,Band_gap_GGA_optical,Band_gap_HSE_optical
Cu2Hf3Se8Tl2,0.629209,1.316088,0.758045,1.443498
Cu2Hg1I4,1.021751,1.773704,1.021751,1.773704
Cu2Hg1S4Si1,0.767058,1.555019,0.767058,1.555019
Cu2Hg1S4Sn1,0.022976,0.601263,2.622571,0.601263
Cu2Hg1Se4Si1,0.22366299999999972,0.9270459999999998,0.22366299999999972,0.9270459999999998
Cu2Hg1Se4Sn1,0.0,0.165034,0.0,0.165034
Cu2Hg1Si1Te4,0.113952,0.61539,0.113952,0.61539
Cu2Hg1Sn1Te4,0.0,0.229083,0.0,0.229083
Cu2I3Rb1,2.522365,3.395874,2.522365,3.395874
Cu2In2S6Si1,0.798353,1.615921,0.798353,1.615921
Cu2K1Mg2O12V3,1.233021,2.991,1.481875,3.386281
Cu2K1Nb1S4,1.909865,2.742609,2.147798,2.996965
Cu2K1Nb1Se4,1.514873,2.262909,1.765246,2.54333
Cu2K1S3Sb1,1.284574,1.896457,1.81836,2.486909
Cu2K1S4V1,1.422618,2.027602,1.683493,2.315856
Cu2K1Se4Ta1,1.798504,2.554927,2.108394,2.876359
Cu2K1Se4V1,1.103897,1.687282,1.342886,1.994984
Cu2K3O4,0.08180100000000001,1.5684870000000002,0.718132,2.24863
Cu2La1O4,0.498297,1.73829,0.822714,2.202724
Cu2Li1O2,0.194025,2.034411,0.836796,2.613292
Cu2Li2O6Te1,1.2981729999999998,3.329184,1.833741,3.869492
Cu2Mg1O3,1.278297,3.191553,1.427888,3.507285
Cu2Mg1S4Si1,2.093617,2.9865469999999994,2.093617,2.9865469999999994
Cu2Mg1Se4Si1,1.141407,1.962412,1.141407,1.962412
Cu2Mn1S4Si1,1.811218,2.546102,2.198952,2.986186
Cu2Mn1S4Sn1,0.402005,1.049735,0.402005,1.049735
Cu2Mn1Se4Si1,0.9157400000000004,1.7209900000000005,0.9157400000000004,1.7209900000000005
Cu2Mn1Se4Sn1,0.0,0.549045,0.0,0.549045
Cu2Mn3O8,0.209558,2.623861,1.305767,3.326673
Cu2Na1Nb1S4,1.861819,2.693493,2.167213,3.039478
Cu2Na1O2,0.958969,2.705537,1.713725,3.034156
Cu2Na2O11Si4,2.059835,4.253607,2.207659,4.409894
Cu2Na2S4Zr1,0.176324,0.880813,0.176324,0.880813
Cu2Na3O6Sb1,1.384505,3.405559,1.879006,3.405559
Cu2O1,0.647621,1.96662,0.647621,1.96662
Cu2O14Sr9Zn4,2.397988,3.789873,2.397988,3.789873
Cu2O2Pb1,0.749533,1.536476,2.164628,3.074436
Cu2O2S2Sr2Zn1,1.512716,2.164224,1.512716,4.31902
Cu2O2Sr1,2.10234,3.160535,2.10234,3.160535
Cu2O2Tl1,0.0,1.880478,0.0,2.787614
Cu2O4P1,0.087474,1.207108,0.087474,1.207108
Cu2O4S1,1.744895,3.011069,1.744895,3.011069
Cu2O4Se1,1.350494,3.245712,1.497924,3.399974
Cu2O4W1,1.461636,2.250105,1.748154,2.460428
Cu2O5S2Sc2Sr3,2.145667,3.073342,2.145667,3.073342
Cu2O5Y2,1.508136,3.440181,1.581761,3.488949
Cu2O7P2,1.586716,3.73658,6.975974,8.785712
Cu2O7V2,1.4104230000000002,3.178532,1.758274,3.540644
Cu2O8Te3,1.380821,3.1819070000000003,1.755485,3.589886
Cu2P7,0.793618,1.448609,0.793618,1.448609
Cu2Pb1S4Si1,1.601554,2.25883,2.415907,3.129294
Cu2Rb1S4V1,1.444363,2.054573,1.690966,2.322028
Cu2Rb1Se4Ta1,1.87156,2.635927,2.150358,2.919618
Cu2Rb1Ta1Te4,1.270235,1.8805870000000002,1.352121,1.990208
Cu2Rb2S4Sn1,1.211512,2.055681,2.026712,2.932701
Cu2Rb2S4Ti1,1.874129,2.631099,2.246173,3.168116
Cu2S1,0.033525,0.661016,0.033525,0.661016
Cu2S3Si1,0.059279,0.7204079999999999,1.967454,0.7204079999999999
Cu2S3Sn1,0.021194,0.5171990000000006,0.806969,0.5171990000000006
Cu2S4Si1Zn1,1.788641,2.650139,1.788641,2.650139
Cu2S4Sn1Sr1,0.799745,1.58213,1.616678,2.413507
Cu2S4Sn1Tl2,0.489321,1.111313,1.844971,2.582197
Cu2S4Sn1Zn1,0.574935,1.244691,0.574935,1.244691
Cu2S4Ta1Tl1,1.972736,2.749861,2.136302,2.879824
Cu2S4W1,1.646567,2.443688,2.235122,3.049173
Cu2Se3Si1,0.585915,1.292783,0.585915,1.292783
Cu2Se3Sn1,0.016891,0.235935,0.444258,0.235935
Cu2Se4Si1Zn1,0.804084,1.583669,0.804084,1.583669
Cu2Se4Sn1Zn1,0.084695,0.648877,0.084695,0.648877
Cu2Si1Te4Zn1,0.375512,0.958785,0.375512,0.958785
Cu2Sn1Te4Zn1,0.0,0.379814,0.0,0.379814
Cu2Te3Ti1,0.028638,0.532391,0.421538,0.922595
Cu2Te3Zr1,0.095057,0.567637,0.46991,0.992321
Cu3F4H2O2,2.078911,4.388446,2.078911,4.388446
Cu3F7Na1,2.237606,4.586878,2.423543,4.703667
Cu3Fe4La1O12,0.798558,1.943087,0.824361,1.94635
Cu3Fe4O12Y1,0.817407,1.968973,0.83962,1.968973
Cu3Fe4O24V6,1.132145,2.84699,1.563864,3.193688
Cu3Ge1O10P2,1.634498,3.815465,1.831254,4.006628
Cu3Ge4Na2O12,1.602836,3.549538,1.816321,3.549538
Cu3Ge5K2O14,1.669297,3.374917,1.856004,3.717578
Cu3H2Mo2O10,1.512814,3.468281,1.580409,3.562706
Cu3H6O11V2,1.020046,3.056614,1.817136,3.743993
Cu3K1S2,0.7429550000000003,1.532588,2.08882,2.912592
Cu3K1Te2,0.689303,1.267973,1.583862,2.180194
Cu3K2O12Se4,1.492553,3.436554,1.732296,3.668027
Cu3K3Nb2S8,2.028401,2.879227,2.233885,3.075427
Cu3K3Nb2Se8,1.67868,2.449395,1.873618,2.632722
Cu3K3P2,1.51249,2.08304,1.51249,2.08304
Cu3K3S8Ta2,2.399929,3.245207,2.5483,3.393478
Cu3K3Se8Ta2,2.0134,2.777628,2.153263,2.992092
Cu3La3Sb4,0.21582400000000135,0.56827,0.479419,0.761924
Cu3Mo2O9,1.237044,3.058345,1.50141,3.318881
Cu3N1,0.565888,0.89823,1.387714,1.776081
Cu3N5Sr6,0.6244879999999999,1.4774180000000001,1.517597,2.351051
Cu3Na1Te2,0.358716,0.949236,0.358716,0.949236
Cu3Nb1S4,1.844659,2.643234,2.351209,3.181678
Cu3Nb1Se4,1.509527,2.23017,2.16818,2.924802
Cu3Nb1Te4,1.049952,1.6220699999999995,1.911719,2.550264
Cu3Nb2O8,1.218414,3.068925,1.571763,3.519045
Cu3O12Pb1Sn4,0.913631,2.9403,1.229751,2.9403
Cu3O12Sn4Sr1,0.634672,2.697548,0.634672,2.697548
Cu3O18Se6Tl2,1.242063,2.50121,1.855036,3.204502
Cu3O4P1,0.811274,1.994731,2.999771,4.209414
Cu3O4V1,0.880404,1.787046,1.754906,2.324868
Cu3O6Te1,1.191695,2.811916,1.447574,3.462686
Cu3O8P2,1.478587,3.5663419999999997,1.698298,3.779114
Cu3O8V2,1.221046,2.965922,1.448175,3.291967
Cu3P1S4,1.474478,2.3479330000000003,1.923514,2.847999
Cu3P1Se4,0.300697,0.994821,0.300697,0.994821
Cu3Rb1S2,0.743548,1.5351339999999998,1.957638,2.722887
Cu3S2Tl1,0.645664,1.242963,1.343796,1.978478
Cu3S3Sb1,0.788569,1.453064,0.788569,1.453064
Cu3S4Sb1,0.0,0.256838,0.0,2.097083
Cu3S4Ta1,2.1328940000000003,2.935068,2.652286,3.491878
Cu3S4V1,1.363509,1.982861,1.849414,2.521708
Cu3S8Ta2Tl3,2.06779,2.82397,2.51034,3.310903
Cu3Sb1Se3,0.813552,1.344112,1.120511,1.686672
Cu3Sb1Se4,0.0,0.113321,0.0,0.113321
Cu3Sb4Y3,0.251089,0.680335,0.74432,1.214488
Cu3Se2Tl1,0.429271,1.006474,1.150079,1.75984
Cu3Se4Ta1,1.777514,2.505716,2.449549,3.215666
Cu3Se4V1,1.1517500000000003,1.698735,1.738169,2.349312
Cu3Ta1Te4,1.260778,1.8420059999999996,2.127462,2.778122
Cu3Te4V1,0.7336689999999999,1.2128479999999997,1.550585,2.151694
Cu4Ge2Ni1S7,0.557169,1.1588719999999997,0.980693,1.564154
Cu4K1O12P3,1.410649,3.561952,1.572151,3.561952
Cu4K2Se9Y4,1.004145,1.766265,1.738193,2.567949
Cu4Na1O12Te2Tl3,1.313859,3.014958,1.559739,3.266539
Cu4Na2S3,0.37791,1.076068,0.37791,1.076068
Cu4Ni1S7Si2,0.199776,0.953617,1.632048,1.488761
Cu4O3,0.396045,2.142684,1.318453,2.929075
Cu4O9P2,1.073561,3.263284,1.073561,3.263284
Cu4P10Sn1,0.438891,1.030086,0.979411,1.710661
Cu4P8Si1,1.23602,1.905449,1.671953,2.350061
Cu4S4Sn1,0.01546,0.6814970000000002,0.315361,0.6814970000000002
Cu4S4Ti1,1.571461,2.4008410000000002,2.176621,3.034468
Cu5H14O18S2,1.4241320000000002,3.597899,1.778075,3.942057
Cu5H4O12V2,1.420362,3.39049,1.626836,3.563132
Cu5K3O4,1.804518,3.011969,2.10646,3.12936
Cu5Li2O14Si4,1.634827,3.727905,1.685055,3.727905
Cu5Lu3Se8Tl2,1.226875,1.93922,1.655043,2.442137
Cu5Na2O14Si4,1.586081,3.637525,1.740624,3.637525
Cu5Na8O10,0.0,1.3040160000000003,0.0,2.149123
Cu5O10P2,1.2724550000000003,3.270677,1.680252,3.270677
Cu5O4Rb3,1.733914,2.928149,2.04114,3.101823
Cu5Se3Tl1,0.182647,0.659046,0.453675,0.972637
Cu6Fe1S8Sn2,0.0,0.317631,0.0,1.529094
Cu6Fe2S8Sn1,0.127302,0.981016,0.673323,1.228661
Cu6Ge1S8W1,1.169469,2.021256,1.169469,2.021256
Cu6Hg3S12Sb4,0.4219910000000002,1.0859340000000004,0.4219910000000002,1.0859340000000004
Cu6La4Mn1S10,1.792603,2.469059,2.193477,3.126556
Cu7F2O18Te6,1.3232290000000004,3.1591329999999997,1.3232290000000004,3.1591329999999997
Cu8Ge1S6,0.818355,1.604709,0.818355,1.604709
Cu8Se6Si1,0.540784,1.305908,0.540784,1.305908
Cu9H2O20P4,0.815535,2.949285,1.233247,3.334882
D1Fe1O2,1.9576779999999996,3.1855080000000005,2.396581,3.687356
D1Mg1N1,2.243099,3.508497,3.289365,4.615521
D1N1O4Se1,2.54039,4.372337,2.616473,4.485443
D1N1Sr1,2.0455840000000003,3.239242,2.14332,3.319569
D1N1Sr2,1.7728960000000002,2.665139,2.806111,2.665139
D26Mg7Sr6,2.9380979999999997,3.9026750000000003,3.487708,4.502146
D2Ga1Rb1,1.417726,2.047628,1.950229,2.541477
D2N1Rb1,1.9741140000000001,3.285561,3.932248,5.280162
D2O1,5.235198,7.210956,9.019731,11.099807
D3F6O4S1Sb1,2.885388,4.9634540000000005,2.955311,5.078925
D3K1Mg1N2,1.760321,3.032192,1.760321,3.032192
D3Mg1Rb1,2.562818,3.60044,3.930183,5.013799
D3N1,4.258863,5.836004,6.305164,7.982389
D4Ga1Na1,4.613244,5.7651140000000005,5.129562,6.239834
D4Ge1,4.353175,5.332278,4.86754,5.802438
D4K2Pd1,2.660711,3.88054,4.183042,3.88054
D4Li3Rh1,0.402637,1.086197,0.929703,1.612459
D4Mg1Ni1Sr1,2.073955,2.806096,2.544981,3.310311
D4Mg1Sr1,2.626607,3.595068,3.842199,4.859475
D4Mg2Ru1,0.906399,1.547719,2.722297,3.395113
D4N1O4S1,3.539997,5.875148,3.608654,5.875148
D4N2Sr1,2.391994,3.809064,3.817808,5.278691
D4Na2Pd1,2.202738,3.415095,4.458553,5.77817
D4Pd1Sr2,1.691652,2.500052,2.214492,3.080069
D4Sn1,3.618706,4.667528,4.881163,5.864762
D5K3Mn1,1.599131,3.782667,1.70827,3.945585
D5K3Pd1,2.933366,4.0588370000000005,2.933366,4.0588370000000005
D5Mn1Rb3,1.70274,3.644892,1.712574,3.644892
D5Pd1Rb3,2.638133,3.71103,2.638133,3.71103
D5Pt1Rb3,2.592454,3.646294,3.003659,4.13492
D6Fe1Mg2,1.9780549999999995,4.186952,4.213244,6.493476
D6Fe3K1O14S2,1.985737,3.122214,1.985737,3.122214
D6Li3Rh1,2.463971,3.419089,4.210387,5.287405
D6Mg1Sr2,2.734244,3.711407,3.683281,4.733869
D7La1Mg2,2.673939,3.599881,3.247011,4.420966
D7Mg3Mn1,1.738073,3.509482,1.738073,3.509482
D7Mg3Re1,2.689718,3.719093,3.009292,3.981985
D8Fe1Mg2Na2,1.9378039999999999,4.0354339999999995,2.334075,4.0354339999999995
D8Mg2Na2Ru1,2.8779309999999994,4.214017,3.355212,4.744746
D9Li5Pt2,0.0,0.572239,0.0,3.29219
Dy2O1S2,2.150427,3.11119,2.150427,3.11119
Dy2O2Te1,1.104854,1.713916,3.430296,4.273568
F,2.183681,5.42837,2.183681,5.42837
F10Hg1O2Te2,2.487622,4.119496,3.51462,4.119496
F10Hg3Nb2O4S1,2.344105,3.199201,2.420282,3.281709
F10Hg3O4S1Ta2,2.427559,3.365381,2.473459,3.421055
F10Mn3Na1,0.863222,1.814571,0.91276,1.858697
F11H3N1Sb2,4.058226,6.323947,4.780902,7.060334
F11Kr3Sb1,1.288346,3.268315,1.424106,3.428517
F11Na1V1Zr2,2.553835,3.437478,2.986873,3.880256
F12Ge5,4.276303,5.657986,4.56835,5.995031
F12H2Sb2,2.278797,5.135398,2.28963,5.167821
F12H8O4Pt1Sb2,1.964306,3.769553,2.475076,4.333559
F12I4Sb2,0.558947,1.289653,1.764652,2.897023
F12K4Mn3,1.48285,2.451962,1.64776,2.606136
F12Mn3Na1Rb2,1.835516,3.278748,1.968901,3.400999
F12Sb2Te4,1.057979,1.512143,1.526371,2.025026
F12Sb2Xe1,2.733264,4.474412999999999,2.816598,4.59105
F13N1O2Xe2,2.932881,4.121619,3.072842,4.265378
F14Ga3Na5,5.140926,7.416172,6.877916,9.243905
F14I2Pb8,2.853407,3.793371,3.505272,4.4485
F14K5Ti3,0.029266,2.631499,0.029423,2.675277
F14N2Ni1,1.27777,2.208729,1.300899,2.208729
F14O10Re4Xe3,1.446191,2.987893,1.446191,2.987893
F14O2Os1Sb2,1.414443,3.078886,1.46138,3.078886
F14Sb2Xe1,1.972353,3.831,2.059049,3.935048
F14Sb4,3.715474,5.108363,4.239439,5.700725
F14Sr4Zn3,0.0,7.315039,0.0,7.315039
F15O1Sb1Xe2,1.23861,2.709265,1.41672,2.902394
F16Sb2Xe1,1.958266,3.90146,2.036214,3.973953
F16Sb4,3.378266,4.728322,3.573329,4.943944
F18Sb3Tl1,2.099009,3.918539,2.535104,4.371239
F1Fe1Na1O4S1,3.765371,4.443832,3.939137,4.597341
F1Fe1O3Se1,2.440403,3.643544,2.497768,3.735601
F1Fe1O3Sr2,2.475787,4.023165,2.75872,4.032838
F1Fe1O3Te1,2.32477,3.452388,2.462689,3.598227
F1H1,2.282505,5.51894,2.282505,5.51894
F1H1Hg1O1,1.47472,2.934012,2.631408,4.237655
F1H1Mg1O1,4.753019,6.659919,4.753019,6.659919
F1H1Na1O4P1Sn1,3.57494,4.486176,3.818207,4.775829
F1H4Mn1O5P1,4.285914,5.599137,5.790806,6.921247
F1H4N1O3S1,5.082301,6.919377,5.985763,7.88846
F1H4Na1Ni1O6S1,4.455021,5.8481,4.634047,6.153345
F1H6N1Na1O4P1,4.904836,6.661529,7.730838,9.644514
F1Hg2O3P1,1.535627,2.540564,1.535627,2.540564
F1I1O2,2.890136,4.159333,3.119251,4.377462
F1I1Pb1,1.505666,2.290238,1.505666,2.290238
F1In1O1,1.277362,2.72434,1.277362,2.72434
F1K1,6.103375,8.170745,8.903971,11.128803
F1K1Nb2O6Sr1,1.798321,3.183349,3.867566,5.405473
F1K1O6Te3,2.953064,3.974083,2.953064,3.974083
F1La1S1,1.407503,2.447385,1.407503,2.447385
F1La1Se1,1.742921,2.661026,1.742921,2.661026
F1La3N4Si1,2.047942,3.042609,2.336986,3.478221
F1Li1,7.417628,9.663986,13.595177,16.107024
F1Li1O4P1V1,1.747279,3.053499,1.875697,3.252185
F1Lu1S1,2.559084,3.665933,3.720297,4.981397
F1Mg2N1,2.118959,3.385604,6.807152,8.279655
F1Mn1P1Sr1,1.480288,2.053426,1.480288,2.053426
F1Mn1Sb1Sr1,1.030068,1.527922,1.518477,2.076939
F1Mn2O4P1,3.450577,4.676775,5.023501,6.098035
F1N1O3Xe1,2.351013,3.946777,2.582481,4.201186
F1N1Ti1,0.592513,1.528893,1.271141,2.307162
F1N2O3S4,1.316558,1.802435,1.426722,2.025237
F1N3O2S4,2.091986,3.033335,2.120458,3.051175
F1N5S4,2.395379,3.565876,2.49462,3.670999
F1Na1,6.32156,8.450592,6.32156,8.450592
F1Na3O4S1,4.584647,6.25057,6.977819,8.681222
F1O3Re1,2.708494,3.991617,3.051008,4.380776
F1O3Sc1Se1,3.6278580000000002,5.0361899999999995,3.9321,5.435983
F1O3Tc1,2.646108,3.874629,2.806958,4.034
F1O4P1V1,1.428986,2.55959,2.019678,3.212371
F1O4Rb1S1,2.411377,4.605653,2.517028,4.724428
F1O6S1Tc1,2.958787,4.358105,3.038325,4.431878
F1Rb1,6.542119,8.622986,6.542119,8.622986
F1S1Y1,1.301894,2.236915,1.301894,2.236915
F1Sb1Se2Sr1,0.180735,0.294039,0.180735,0.294039
F1Sb1Sr1Zn1,0.126661,0.586011,0.126661,0.586011
F1Se1Y1,1.598347,2.529718,1.758116,2.722115
F1Tl1,2.947715,3.985867,3.337413,4.367495
F24Fe3Pb8,1.311004,1.498324,1.318599,1.498324
F2Fe1,3.015103,3.628333,3.907337,4.458513
F2Fe1O4P1Sr1,2.0732,3.543762,2.139655,3.55362
F2Fe2O1S2Sr2,2.604322,3.462042,3.324864,4.328468
F2Fe2O1Se2Sr2,2.527136,3.342045,2.611696,3.342045
F2Ga1H5N2,2.567284,4.162508,4.889853,6.537782
F2Ge1,4.013486,5.182213,4.822204,6.03584
F2Ge1O4V2,1.788062,2.899101,1.788062,2.899101
F2H1N1O3Xe1,2.297318,4.187266,2.500179,4.413996
F2H2K2Mn1O8P2,0.8886350000000001,1.9135419999999999,1.417846,1.9135419999999999
F2H2N2O3Sn1,1.777104,2.791621,2.002393,3.041249
F2H3K3O8S2,0.612989,2.849997,0.662529,2.928842
F2H3N1O2Te1,1.755301,2.2132259999999997,1.895164,2.364893
F2H6N2,0.901458,1.382362,0.901458,1.382362
F2H8Mo1N2O5,2.242968,3.669351,2.299993,3.703122
F2Hg1,0.905002,2.857386,0.905002,2.857386
F2Hg2,1.781128,2.550732,5.376307,6.150544
F2Hg3S2,1.888264,3.155077,3.512427,4.930139
F2I1O2Rb1,4.324164,5.7933769999999996,4.3983,5.8629
F2K3Na1O6P2,4.541539,6.29565,4.541539,6.29565
F2Kr1,2.719359,4.711035,3.346173,5.424732
F2Mg1,6.754574,9.037448,6.754574,9.037448
F2Mn1,4.026235,5.310656,5.884858,5.310656
F2Mn3O4Si1,2.880542,4.11944,2.880542,4.11944
F2N2O4Xe1,2.385603,3.862115,3.08756,4.734177
F2N5P1S3,2.478503,3.476539,2.622417,3.617179
F2Na1O2V1,2.232608,3.15517,3.062177,4.325877
F2Ni1,5.188566,5.349953,5.623228,5.349953
F2O11Si3Y4,5.042669,6.788829,5.669956,7.49839
F2O1Pb2,2.784569,3.803183,3.672248,4.714544
F2O2Xe1,2.087698,3.308832,2.185206,3.308832
F2O3Os1,2.198871,3.346886,2.523674,3.697982
F2O7Te2V2,2.325662,3.557084,2.501361,3.747411
F2O9Pb2Ti4,2.210192,3.497354,2.937052,4.271977
F2Pb1,4.412078,5.768142,6.046071,7.44728
F2Pd1,0.101738,3.013269,0.829053,3.575147
F2S3Sn1Sr2,2.00427,3.055516,2.00427,3.055516
F2Se3Sn1Sr2,1.380116,2.283209,1.380116,2.283209
F2Sn1,3.227128,4.206596,4.481834,5.556582
F2Sr1,6.747247,8.801276,9.974189,12.318857
F2Ti1,0.971922,3.963946,1.023855,4.152377
F2V1,2.7047169999999996,3.732527,3.673132,4.825876
F2Xe1,2.65943,4.3373,8.097706,4.426648
F2Zn1,5.456668,6.297909,11.330491,6.297909
F30O6Te7,2.43588,4.033572,2.43588,4.033572
F3Fe1,2.534916,4.01951,2.534916,4.01951
F3Fe1Na2O4S1,2.338836,3.749291,2.584798,4.030221
F3Ga1,4.599291,6.967622,10.150894,12.966676
F3H2K1,1.623144,3.624174,1.724328,3.693658
F3Hg1K1,0.543519,2.28954,0.543519,2.28954
F3Hg1Rb1,0.581738,2.333737,6.713234,8.442542
F3I1,2.109883,3.610634,2.573935,4.131046
F3I1Sn2,2.311991,3.119227,3.399098,4.293262
F3In1,3.814784,5.994182,8.191123,10.147472
F3Ir1,1.175638,2.986603,1.303602,3.092231
F3K1Mn1,4.086348,5.196043,6.165064,7.163658
F3K1Mn1O3P1,1.486466,3.063858,2.045629,3.734594
F3K1O1V1,2.712149,4.065817,2.731001,4.065817
F3K1V1,2.788432,3.735231,3.982026,5.130255
F3K2O2V1,2.946022,4.249673,2.946022,4.249673
F3K3O4Ti1,2.387386,4.157121,2.387386,4.157121
F3La1,6.218436,8.322937,6.661993,8.322937
F3Mn1,0.632347,1.434047,1.182051,2.107461
F3Mn1Na1,3.924062,5.091779,6.116836,7.156189
F3Mn1Na2O7P2,0.395694,1.956456,1.369605,2.614558
F3Mn1Rb1,4.384707,5.546527,6.216514,7.213638
F3Mo1,1.72238,3.615009,2.075943,3.89962
F3Mo1Na3O3,3.6480240000000004,5.077043,4.038193,5.455963
F3Na1V1,1.353985,2.20936,3.951143,4.868032
F3Ni1,1.066822,2.412104,1.890599,2.788993
F3O1Rb1V1,2.73698,4.114803,2.859631,4.240175
F3O2Tc1,2.73294,4.300206,2.851213,4.424554
F3Rb1V1,3.163716,4.143595,3.795032,4.894585
F3Rh1,0.974384,2.97816,1.104187,3.07528
F3Sb1,4.437379,5.614783,4.761703,6.015707
F3Sc1,6.081106,8.633286,7.527456,10.21477
F3Tl1,0.629346,2.318842,3.482434,5.471666
F3V1,1.435818,2.519931,1.435818,2.519931
F3Y1,5.682111,7.869972,6.217877,8.443143
F4Fe1Rb1,3.1646039999999998,4.643638,3.302939,4.643638
F4Fe2O4Sr3,1.973324,3.351251,2.253113,3.368292
F4Ge1,5.066947,7.471647,10.184317,12.621853
F4H1P1,7.512609,9.583405,7.578569,9.647465
F4H2K1Mn1O1,1.796621,3.348853,1.8695,3.348853
F4H2Li1Mn1O1,1.942928,3.422408,2.048911,3.550786
F4H2Mn1O1Rb1,1.85698,3.428396,1.905497,3.480176
F4H2Mn1O1Tl1,1.506878,2.592299,1.506878,2.592299
F4H2Na1O2V1,3.321177,4.621461,3.321177,4.621461
F4H4O2Rb1V1,2.386536,3.504187,2.404149,3.520712
F4H8Mn1N2O2,4.785842,6.03437,5.973192,7.229092
F4H8N2O2Zn1,4.951307,7.074359,5.701838,7.878782
F4Hf1,5.304625,7.451003,6.152907,8.342201
F4Hg1Rb2,1.888179,3.614911,6.831027,8.624119
F4K1Mn1,1.9385900000000003,3.352594,2.177568,3.650752
F4K1Mo1Na1O2,1.31377,2.931723,1.323188,2.936019
F4K1Na1O2W1,2.082042,3.7279139999999997,2.085801,3.7279139999999997
F4K1Tl1,2.309528,4.082862,3.636174,5.676738
F4K2Mn1,3.623146,4.790096,5.756831,6.884587
F4K2Pd1,1.973486,4.127504,2.045521,4.200831
F4Li1Mn1,1.864231,3.357247,2.292312,3.82017
F4Li1Y1,7.926802,10.119321,7.926802,10.119321
F4Li3Mn1O6P2,1.538725,2.992938,1.548131,3.020296
F4Mg1Sr1,6.693304,8.851422,9.22079,11.479159
F4Mn1,1.391481,3.300555,1.503909,3.439393
F4Mn1Na1,2.052487,3.54748,2.372329,3.8945
F4Mn1Rb1,1.978417,3.441296,2.225681,3.658623
F4Mn1Tl1,1.814797,3.120476,2.042068,3.379628
F4Mn3Na5O16S4,0.918124,1.947889,3.341864,3.999299
F4Na1Ti1,0.135389,2.951647,0.202191,2.951647
F4Na2O1V1,2.818898,4.149922,2.896865,4.149922
F4Na2Pd1,1.277984,3.440588,1.460451,3.687371
F4O1Os1,0.62603,2.389947,0.62603,2.389947
F4O1Ru1,0.466013,2.345559,0.477943,2.352647
F4O1Tc1,1.107339,3.419674,1.124793,3.460451
F4O1W1,2.526617,3.701474,3.127328,4.423995
F4O2Sn4,2.541079,3.37508,3.643029,4.575479
F4O5Tc2,2.090932,3.376209,2.18965,3.480853
F4Pb1,1.528321,3.371,8.107424,10.351184
F4Pb1Pd1,1.027049,3.011875,1.629025,3.740103
F4Pd1,0.829143,2.750163,1.849739,2.750163
F4Pd1Sr1,1.24188,3.449936,1.24188,3.895529
F4Pt1,1.303547,3.138205,2.496837,4.480438
F4Rb1Tl1,2.719723,4.344721,4.139582,5.911128
F4S1,4.494342,6.232741,4.743184,6.513651
F4S1W1,2.992182,4.219567,3.000162,4.232125
F4Se1,4.107037,5.537088,4.497328,5.936757
F4Si1,7.701086,10.044108,11.810704,14.309833
F4Sn1,3.092446,5.242883,8.398984,10.752469
F4Te1,3.862403,5.203724,3.933142,5.274311
F4Ti1,3.908001,5.822247,3.909616,5.824205
F4V1,2.466046,3.798694,2.526629,3.862856
F4Xe1,2.836515,4.555889,3.065183,4.818013
F4Zr1,5.08374,7.310895,5.433909,7.672627
F5Fe1H4Mn1O2,1.851746,2.541717,1.851746,2.541717
F5Fe2H4O2,1.199163,1.361585,1.237509,1.40504
F5Ga1H4Mn1O2,3.3918340000000002,4.591834,5.860059,6.945006
F5H2K2Mn1O1,1.940734,3.428032,4.395566,5.58819
F5H2K2O1V1,2.241763,3.358878,2.241763,3.358878
F5H2Mn1O1Rb2,1.927564,3.399389,4.406318,5.540269
F5H2Mn1O1Tl2,1.188562,2.183264,1.188562,2.183264
F5H2N1Te1,2.629786,4.22785,3.281761,4.908869
F5H4K1,0.994472,2.084507,1.002799,2.08453
F5I1N2O4,1.615282,3.14947,1.615282,3.14947
F5K1Na1Nb1O1,4.2757000000000005,6.058466,4.339809,6.058466
F5K2Pd1Rb1,2.314638,4.505492,2.32879,4.505492
F5Li2Mn1,2.230836,3.795963,4.609224,5.8346
F5Mn1Rb2,2.055288,3.556437,4.529257,5.710156
F5N1O2Xe1,2.565452,4.224434,2.712919,4.383128