material formula,Band_gap_GGA,Band_gap_HSE,Band_gap_GGA_optical,Band_gap_HSE_optical
Hf1Pd1Sn1,0.397988,0.601437,2.155839,2.596011
Hf1S2,1.144762,1.922823,2.04157,2.925745
Hf1S3,1.053858,1.861348,1.776681,2.668276
Hf1S3Sn1,1.055521,1.650854,1.151476,1.764975
Hf1S3Sr1,1.46941,2.253613,1.46941,2.253613
Hf1S5Y2,1.216119,2.054058,1.216119,2.054058
Hf1Se2,0.377393,1.031217,1.403182,2.166875
Hf1Se3,0.0,0.285387,0.0,2.0015
Hf1Se3Tl2,0.514029,1.082789,0.827351,1.440082
Hf1Si1Te1,0.0,0.066712,0.0,1.947387
Hf1Te4Tl4,0.310428,0.78974,0.514572,1.006404
Hf2N2S1,0.881004,1.722201,2.181599,3.160172
Hf3N4,1.092207,1.976276,1.092207,1.997242
Hg1I1N1O3,1.964141,3.489228,2.28375,3.778846
Hg1I2,1.043904,1.912826,1.862617,2.784128
Hg1I2O6,2.698227,4.038155,3.038687,4.353745
Hg1I6Tl4,1.144957,1.943431,1.144957,1.943431
Hg1In1S3Tl1,1.401137,2.171177,1.984164,2.828339
Hg1In2S4,0.348264,1.268158,2.817099,3.838165
Hg1In2Se4,0.617363,1.382639,0.617363,1.382639
Hg1In2Te4,0.50976,1.117463,0.50976,1.117463
Hg1K1S3Sb1,1.514773,2.402816,2.139364,2.998954
Hg1K2O2,2.129655,3.436638,2.129655,7.517973
Hg1K2S2,2.03543,3.105064,2.628719,3.639777
Hg1K2Se4Sn1,1.437883,2.271235,2.677905,3.659801
Hg1K4P2,0.927935,1.560765,2.31242,2.96906
Hg1K6S4,1.682395,2.573333,1.682395,2.573333
Hg1K6Se4,1.357568,2.153906,1.357568,2.153906
Hg1Mo1O4,1.85247,3.096414,2.835356,4.035662
Hg1N1O2,1.83116,3.121549,2.053201,3.429427
Hg1N1O3,2.499908,4.152845,2.499908,4.152845
Hg1N6,2.332621,3.515809,2.826155,4.05957
Hg1Na1O4P1,1.520441,3.236768,3.586676,5.522414
Hg1Na2O2,1.659223,3.161647,4.091399,5.678276
Hg1Na2S2,2.202878,3.217809,2.668822,3.705713
Hg1Na4P2,0.90699,1.586253,2.504822,3.205582
Hg1O1,1.297918,2.473962,2.82707,4.299444
Hg1O14P4V2,1.520397,2.255654,2.07672,2.255654
Hg1O2,0.267742,1.753653,2.500249,4.319135
Hg1O2Rb2,2.059236,3.460303,2.059236,3.460303
Hg1O2Sr1,2.256,3.788804,4.655099,6.206326
Hg1O3Se1,2.023982,3.418463,2.699694,4.174535
Hg1O3Sn1,0.0,1.209426,0.0,1.209426
Hg1O3Te1,2.001355,3.255318,2.758451,4.067267
Hg1O3Ti1,1.407058,2.745605,1.407058,2.745605
Hg1O3V1,2.063095,2.824171,2.4029,3.023223
Hg1O4Re1,2.407251,3.204516,2.407415,3.204516
Hg1O4S1,1.530566,3.219226,4.013154,5.841531
Hg1O4Se1,0.910668,2.466939,4.097102,5.90644
Hg1O4W1,2.084484,3.439227,3.34459,4.710242
Hg1O6V2,1.976632,2.912588,2.037365,2.912588
Hg1O7P2Pd1,1.348708,3.367433,2.045999,3.367433
Hg1O7S2,2.581604,4.335843,2.93671,4.779304
Hg1O8P2Pd2,0.496936,2.478604,0.496936,2.478604
Hg1P1S3,1.771658,2.762358,2.106766,3.147771
Hg1P1Se3,1.064609,1.916191,1.281291,2.157139
Hg1Rb1Sb1Se3,1.029124,1.788543,1.764983,2.476742
Hg1Rb2Sn1Te4,0.639806,1.316132,2.12418,2.92027
Hg1Rb6S4,1.57747,2.443026,2.675059,3.678494
Hg1Rb6Se4,1.304694,2.08884,2.301561,3.190913
Hg1S1,0.0,0.313503,0.0,0.313503
Hg1Se4Si1Tl2,0.923549,1.518487,2.274968,3.122454
Hg1Se4Sn1Tl2,0.695891,1.366624,1.646863,1.366624
Hg1Sn1Te4Tl2,0.071977,0.57835,0.599436,1.064895
Hg1Te1,0.0,0.133608,0.0,0.133608
Hg2I1Na1O2,1.371105,2.415537,2.914839,3.892037
Hg2I1O1,0.848851,1.549273,2.263247,3.286128
Hg2I2,1.68986,2.60976,3.96741,4.398271
Hg2I2Pb1S2,1.676657,2.513756,1.881412,2.794441
Hg2I4,0.943026,1.824321,0.943026,1.824321
Hg2Mo1O4,1.617189,2.252265,1.813176,2.530987
Hg2Mo2O7,1.693567,2.368939,2.598089,3.395733
Hg2Nb2O7,0.548458,1.985513,2.685037,4.255547
Hg2O3Se1,2.23378,3.013414,2.712927,3.013414
Hg2O3Te1,1.71281,2.595047,2.729043,3.509076
Hg2O4S1,1.951209,3.035179,3.294957,4.485739
Hg2O4Se1,1.253415,2.265058,3.06696,4.219953
Hg2O4W1,1.591964,2.438019,2.244148,3.083167
Hg2O5Re1,1.234294,2.170193,2.526567,3.391703
Hg2O5Te1,0.576379,1.589543,2.383971,1.589543
Hg2O7P2,1.471578,3.054651,3.218391,4.941584
Hg2O7Ru2,0.0,0.091571,0.0,0.505894
Hg2O7Sb2,0.0,1.241632,0.0,4.066008
Hg2P2S7,1.798132,2.789959,2.465792,3.53811
Hg2Se4Sn1,0.22368,0.947482,0.22368,0.947482
Hg3I2S2,1.308342,2.240367,2.360228,3.351968
Hg3I2Se2,1.154816,2.023477,2.167703,3.110636
Hg3I2Te2,1.33505,2.079463,1.33505,2.079463
Hg3K2S8Sn2,1.293602,2.179346,2.253344,3.247289
Hg3Na2S4,1.348627,2.177525,2.196953,3.191704
Hg3O10Se1Te2,2.129333,3.41312,2.747997,3.41312
Hg3O10Se3,2.001756,3.461911,2.001756,3.461911
Hg3O5Se4,1.798726,2.953693,2.470156,3.669054
Hg3O6S1,0.556589,1.984547,2.613177,4.197106
Hg3Rb2S8Sn2,1.658184,2.652063,2.575029,2.652063
Hg3Rb2Se4,1.079973,2.043466,2.103057,3.071181
Hg3Rb2Te4,1.087197,1.78846,1.686028,2.402812
Hg3S4Tl2,1.455138,2.240844,2.076161,2.791503
Hg3Se4Tl2,1.096312,1.85564,1.725345,2.494043
Hg4N2O8,1.509379,2.522606,2.321862,2.522606
Hg4O7P2,1.665908,2.619354,2.62282,3.564202
Hg4S6Si1,0.413024,1.24905,1.810541,2.774017
Hg4Se6Si1,0.135557,0.693068,1.396126,2.232203
Hg5O10Re2,1.347544,2.353369,2.308876,3.290526
Hg6O7Si2,1.226454,1.990584,2.971493,3.714852
Hg6O8P2,2.333348,3.31207,2.953566,3.978559
Hg7O10P2,1.524025,2.598621,1.835756,2.937871
I,0.960467,1.785502,1.840069,2.842336
I10Ni1Y6,0.304978,0.946126,0.654206,1.328734
I10Pt1Y6,0.556153,1.070098,0.957529,1.501666
I12W6,1.916054,2.812467,1.967432,2.855866
I16Mo6,1.492619,2.324943,1.507152,2.347719
I18Mo6,0.69116,1.582768,0.707366,1.608953
I1In1,1.372388,1.90789,1.372388,1.90789
I1In1Te1,1.733837,2.480195,1.946436,2.480195
I1In3Te3,1.284007,1.935302,1.848536,2.511355
I1K1,3.860678,4.857818,3.860678,4.857818
I1K1Ni1O6,1.719172,3.113573,2.068168,3.552208
I1K1O3,2.794197,3.919394,2.794197,3.919394
I1K1O4,2.319163,4.179447,3.376867,5.390681
I1K3O5,1.275508,2.969304,1.275508,2.969304
I1La3S8Si2,2.460448,3.586327,2.568071,3.743029
I1Li1,4.244694,5.25389,7.631085,8.703255
I1Li1Mo1O6,1.980308,3.084951,2.74833,3.927062
I1Li1O3,0.0,0.018217,0.0,3.412615
I1Li1O4,2.065052,3.927064,2.917605,4.881242
I1Li1O4Zn1,3.250361,4.416437,3.655321,4.838026
I1Li6P1S5,2.255985,3.346674,2.255985,3.346674
I1Mn1Sb1Se2,1.133717,1.733776,1.975348,2.59318
I1Mo1O6Rb1,2.237505,3.312067,2.317164,3.393824
I1N1Sr2,1.83708,2.766638,3.176099,4.129373
I1N1Ti1,0.0,0.447187,0.0,2.322025
I1N1Zn2,1.901789,3.275114,3.308017,4.480594
I1N1Zr1,0.7521,1.522307,1.832252,2.791485
I1Na1,3.621361,4.628271,3.621361,4.628271
I1Na1Ni1O6,1.632826,3.062761,2.13418,3.703789
I1Na1O4,1.824693,3.635324,3.297791,5.306487
I1Na1O6Pb2,2.610238,4.191582,3.806804,4.191582
I1Na1O6Sr2,2.604495,4.305715,3.596741,5.436312
I1Nb1O2,0.914204,1.711057,1.150867,2.00021
I1Nb2Te6,0.577751,1.03465,0.577751,1.03465
I1O1Rb3,0.572152,1.640251,0.572152,1.640251
I1O1Sc1,1.982656,3.149376,2.482216,3.706361
I1O3Tl1,2.551266,3.589527,2.551266,3.589527
I1O4P1Pb2,2.881394,3.779707,3.400055,4.326554
I1O4Rb1,2.431117,4.29585,3.422445,5.436867
I1O4Tl1,1.68475,2.996324,2.403283,3.859795
I1O5Rb3,1.870435,3.630581,1.870435,3.630581
I1O6Pb1Rb1,1.398529,2.721519,2.795506,4.267097
I1O6Rb1Sn1,2.198208,3.827604,3.337039,5.143526
I1O7Sb5,2.417516,3.321439,2.889265,3.812288
I1O7V1Zn2,2.907194,3.813747,3.200557,3.813747
I1P3Se4,1.575599,2.505195,1.73475,2.637034
I1P7Sr2,2.026975,2.769442,2.157739,2.893408
I1Rb1,3.779106,4.77049,3.779106,4.77049
I1S1Sb1,1.469675,2.054866,1.991084,2.588685
I1Sb1Se1,1.356709,1.986,1.774956,2.406427
I1Sb1Te1,0.764734,1.236464,1.758041,2.294597
I1Se2Tl5,0.723948,1.218841,0.723948,1.218841
I1Se4Tc3,0.8958,1.442841,0.8958,1.442841
I1Ta1Te4,0.272512,0.408785,0.910597,0.408785
I1Te1,0.766513,1.454209,1.001238,1.712525
I1Te2,0.561088,1.105272,0.561088,1.105272
I1Tl1,0.103718,1.667114,1.697802,2.422376
I22Mo6Nb4O1,0.178284,0.558538,0.633537,1.036466
I2K4O9,2.092277,3.831403,2.092277,3.831403
I2La2O4Si1,3.151539,4.601088,3.151539,4.601088
I2Mg1,3.61469,4.587831,4.880152,5.875169
I2Mn1,2.590927,3.315538,3.140204,3.919741
I2Mn1O6,2.568578,3.506998,2.829008,3.7743
I2Mo1,1.696766,2.584426,1.774223,2.661148
I2N2S1,1.52067,2.5413,1.709413,2.5413
I2Na4O1,2.22683,3.482649,2.22683,3.482649
I2Nb1O1,0.857333,1.693433,1.313581,2.17104
I2Ni1,1.463262,2.082508,2.036626,2.751871
I2O15S4,2.309472,3.673653,3.397392,4.853725
I2O1Ta1,0.890843,1.703729,1.477517,2.338281
I2O2Pb3,2.192027,2.970735,2.747036,3.572401
I2O4,1.535112,2.622872,1.646876,2.752675
I2O5,2.558849,3.663802,2.894226,4.047939
I2O6Pb1,2.577223,3.822206,3.472805,4.815076
I2O6Pb3Se2,2.685155,3.619894,3.004084,3.93895
I2O6Pd1,1.10312,2.835508,1.417935,3.132237
I2O6S1,1.859456,3.044641,2.235732,3.46028
I2O7Ti1,2.324121,3.438421,2.324121,3.438421
I2O8Rb1V1,2.694537,3.892251,2.868788,4.063832
I2P4S3,1.840245,2.727701,2.073842,2.988355
I2P4Se3,1.920645,2.806713,2.042236,2.949469
I2Pb1,2.415846,3.179801,3.505459,4.296599
I2Pd1,0.815784,1.690469,0.972296,1.856205
I2Pd1Te1,0.145968,0.476005,1.11063,1.556887
I2Pt1,0.649482,1.337213,0.903045,1.600598
I2Sn1,1.684874,2.307698,2.092337,2.736562
I2Sr1,3.799844,4.789167,3.799844,4.789167
I2V1,2.666065,3.510757,3.005159,3.874919
I2Zn1,2.474774,3.29829,2.474774,3.29829
I2Zr1,0.290093,0.844541,0.519646,1.127175
I3Ir1Te6,0.842599,1.329589,0.842599,1.329589
I3La1,2.030352,2.95628,2.29008,3.376646
I3Mn1Tl1,2.366459,3.08381,2.934567,3.735479
I3Mn2O5Sb3,1.987909,2.767082,2.263851,3.058316
I3Mn3O9Sb5,2.3988,3.160612,2.710631,3.506883
I3Nb1O1,0.657006,1.362413,0.93576,1.629793
I3Nb1Se1,0.608571,1.517944,0.773112,1.696376
I3Nb1Te1,0.481144,1.269072,0.721699,1.512771
I3O13Rb1V2,1.795528,2.526041,1.919728,2.653631
I3O13Tl1V2,1.737277,2.376211,1.737277,2.376211
I3O1W1,0.410766,0.777327,0.646001,0.990561
I3O9Tl1,1.966192,3.095614,2.448474,3.672347
I3P1,2.20115,3.098866,2.279611,3.189424
I3Pb1Rb1,2.843896,3.575075,3.211129,3.971667
I3Pb1Tl1,2.134657,2.874755,2.134657,2.874755
I3Pb2S2Sb1,1.790622,2.483754,2.155902,2.864665
I3Rb1,1.783612,2.609667,2.010617,2.870991
I3Rb1Sn1,2.400668,3.060619,2.761703,3.444386
I3Rb1V1,2.857977,3.701129,2.896782,3.754156
I3Rh1Te6,0.879367,1.365976,0.879367,1.365976
I3S24Sb1,2.36694,3.327303,2.659254,3.62557
I3S2Sb1Sn2,0.639576,1.148424,1.074595,1.609957
I3Sb1,2.127091,2.708569,2.481794,3.071612
I3Ti1,0.049855,1.216448,0.049855,1.216448
I3Tl1,0.188671,1.841403,0.278987,1.895706
I3Y1,2.98852,4.027844,3.342488,4.471545
I4In1Li1,2.246342,3.204895,2.246342,3.204895
I4In1Na1,2.36111,3.339716,2.36111,3.339716
I4In1Rb1,2.493698,3.488873,2.493698,3.488873
I4In2,1.615633,2.406413,2.308845,3.153563
I4Mn3O4Sb2,2.161914,2.944309,2.276004,3.06142
I4Nb1,0.462282,1.115362,0.496876,1.15326
I4Nb4O1Te9,0.182197,0.926915,0.298331,1.030178
I4O12,1.794837,3.098903,2.239347,3.098903
I4O1Ta4Te9,0.345745,1.025862,0.476655,1.152134
I4O1Te9Ti4,0.379507,1.16085,0.567011,1.372687
I4P2,1.803061,2.708614,2.666956,3.638405
I4Pt1,0.66575,1.150805,0.66575,1.150805
I4S1Tl6,1.67519,2.266902,1.67519,2.266902
I4Se1Tl6,1.638801,2.214078,1.638801,2.214078
I4Si1,2.783004,3.851037,2.783004,3.851037
I4Sn1,1.610331,2.577358,4.308159,5.383115
I4Ta1,0.389391,1.089517,0.741978,1.480302
I4Te1,1.719393,2.533283,1.768582,2.558259
I4Te4,0.686076,1.409897,0.909912,1.649076
I4Ti1,1.093478,1.944285,1.247097,2.069533
I4Tl2Zn1,2.921883,3.735824,3.512022,4.393559
I4Zr1,1.77395,2.620272,1.864048,2.620272
I5In1Pb2,1.85773,2.520391,2.260703,2.961925
I5In1Sn2,1.423439,2.083235,2.501693,3.17518
I5In3Sn1,2.069174,2.678077,2.247106,2.86083
I5Ir1Te8,0.878824,1.353583,1.337589,1.88207
I5K1Sn2,1.505487,2.230023,2.663885,3.412564
I5K2N1O1Ru1,1.387537,2.252748,1.62705,2.506416
I5La2,0.149605,0.631294,0.616163,1.289011
I5Nb1,0.892117,1.562408,1.018037,1.667523
I5Pb1Tl3,2.208168,2.899436,2.472405,3.147306
I5Ta1,1.116297,1.838115,1.219094,1.948883
I6In1O18Rb3,2.863908,4.064329,3.437839,4.645531
I6In2,2.211396,3.199548,2.360146,3.199548
I6K2O18Zr1,3.282062,4.533508,3.934385,5.273776
I6K2Pt1,0.93526,1.627948,0.93526,1.627948
I6K2Re1,0.727223,2.242372,0.727223,2.242372
I6K2Tc1,0.703235,1.875404,0.703235,1.875404
I6K2Te1,1.73376,2.315011,2.06575,2.690731
I6Nb1Te4,0.73272,1.465842,1.229194,2.001955
I6O18Rb2Zr1,3.2783050000000005,4.526052,3.933287,5.279113
I6O18Tl4,1.612754,2.565992,3.115848,4.247162
I6Pb1Tl4,2.317512,3.017752,2.607825,3.337985
I6Pb5S2,1.763542,2.470698,1.763542,2.470698
I6Pd1Rb2,0.996212,1.622181,1.096038,1.705022
I6Pt1Rb2,0.511036,1.237479,1.670628,2.505927
I6Pt2,0.266944,0.81868,0.767167,0.81868
I6Rb2Sn1,0.072663,0.799077,0.072663,0.799077
I6Rb2Te1,1.33112,2.021512,1.902986,2.662412
I6Ru1Te7,0.867864,1.417207,1.217411,1.780252
I6S1Sn4,1.290564,1.876643,2.003165,2.639332
I6Si2,2.848816,3.870406,2.848816,4.54374
I6Te1Tl2,1.576693,2.238679,1.893843,2.587209
I7Nb3Te1,0.508936,1.264166,0.845901,1.264166
I7Re3Te7,0.76477,1.324712,1.031911,1.638686
I7Se1Ta3,0.55294,1.246407,0.948014,1.628272
I7Ta3,0.87917,1.28502,1.133451,1.558595
I7Ta3Te1,0.532494,1.22306,0.968969,1.640319
I8Nb3,0.077509,0.492441,0.829582,1.178259
I8Pt3,0.225978,0.441047,0.225978,0.441047
I9Re3,0.834838,1.296644,0.947974,1.419544
In10Pb6S21,1.017916,1.60515,1.308426,1.909729
In1K1O2,2.07277,3.438565,5.759748,7.477977
In1K1O6Te2,2.812288,4.050979,2.812288,4.050979
In1K1P2S7,2.030149,3.056974,2.030149,3.056974
In1K1S2,2.044821,3.066471,2.820333,3.895641
In1K1Se2,1.469271,2.381825,2.271633,3.222897
In1K1Te2,0.984375,1.685757,2.29752,3.092815
In1K2Na1P2,1.059497,1.766197,1.833623,2.569085
In1K2Na1Sb2,0.570053,1.120002,0.570053,1.120002
In1K2Na3O4,1.924489,3.339563,1.924489,3.339563
In1K2P2S7,1.848541,2.947364,2.313338,3.401276
In1K3Na2O4,1.858204,3.303822,3.447328,5.01058
In1K3P2,0.796087,1.49515,2.0459,2.826296
In1La1O3,2.801759,4.186304,2.801759,4.186304
In1La3S6,1.124443,1.87253,1.124443,1.87253
In1Li1Mo2O8,2.58675,3.876347,2.948855,4.221914
In1Li1Mo3O8,1.458509,2.566813,1.458509,2.566813
In1Li1O2,1.787716,3.200007,6.397672,8.019865
In1Li1O6Si2,3.500867,5.211882,5.8802,7.796283
In1Li1S2,2.186266,3.193232,2.186266,3.193232
In1Li1Se2,1.57903,2.440582,1.57903,2.440582
In1Li1Te2,1.376463,2.051972,1.376463,2.051972
In1Lu3S6,1.10007,1.941781,1.10007,1.941781
In1Mn1O3,0.0,0.245401,0.0,1.626931
In1N1,0.0,0.733057,0.0,8.690822
In1N1Ni3,0.0,0.06091,0.0,3.987485
In1Na1O2,1.954115,3.359676,3.25909,4.682007
In1Na1S2,1.821332,2.719779,4.7336,5.731717
In1Na1Se2,1.035742,1.785538,3.94475,4.833246
In1Na1Te2,0.593585,1.273205,2.460171,3.258834
In1Na3O4Rb2,1.905893,3.314034,1.905893,3.314034
In1Na3S3,1.900941,2.975243,1.900941,2.975243
In1Na5O4,1.814284,3.200082,3.759099,3.200082
In1Na5S4,2.003307,2.970545,2.003307,2.970545
In1Ni2O6Sb1,1.643678,2.628873,4.211291,5.14993
In1O3Rh1,0.227235,2.089507,0.227235,2.089507
In1O3Y1,1.966785,3.285522,3.475834,4.8964
In1O4P1,2.155903,3.920507,4.529708,6.429615
In1O4V1,2.828426,4.243172,3.487166,4.816903
In1O6Os1Sr2,0.35405399999999965,2.184183,0.440587,2.270503
In1O6Rh1Sr3,1.539039,3.177291,2.446893,4.255754
In1O6Sb1Sr2,1.755195,3.120456,4.424857,6.177087
In1O6Sr2Ta1,3.8290409999999997,5.377624,4.38134,5.950083
In1O8Se2V1,2.225006,2.891551,3.223211,4.301586
In1P1,0.399505,1.116053,0.399505,1.116053
In1P1S4,2.235295,3.291447,3.103653,4.254564
In1P2S6Tl1,1.58152,2.421787,2.022959,2.886831
In1P2Se6Tl1,1.384,2.169105,1.69049,2.493172
In1P3Sr3,0.855751,1.463006,0.855751,1.463006
In1Rb1S2,2.073819,3.100748,2.073819,3.100748
In1Rb1Se2,1.504523,2.418742,2.192885,2.418742
In1Rb1Te2,0.976998,1.751417,2.388117,3.333822
In1Rb3S3,2.241561,3.246685,3.670901,4.810956
In1S1,0.927191,1.630529,2.346702,3.179725
In1S2Tl1,0.932642,1.537139,0.932642,1.537139
In1S3Sb1,1.412847,2.136958,2.11725,2.876172
In1S6Sc3,0.589701,1.415684,0.589701,1.415684
In1S6Y3,1.078117,1.919301,1.078117,1.919301
In1Sb1,0.0,0.012468,0.0,0.012468
In1Se1,0.334599,1.037299,0.334599,1.037299
In1Se2Tl1,0.673262,1.266666,0.673262,1.266666
In1Si1Te3,0.463051,1.061974,1.033038,1.607222
In1Te1,0.0,0.318182,0.0,1.479728
In1Te2Tl1,0.535204,1.096036,1.391991,2.018899
In2Li2S6Si1,2.055497,3.087398,2.055497,3.087398
In2Li2Se6Si1,1.412805,2.288208,1.412805,2.288208
In2Mg1S4,1.809246,2.711211,1.809246,2.711211
In2Mn1Ni1O6,1.754594,2.717298,1.990732,2.966
In2Mn1S4,1.6279,2.556762,2.719538,3.631831
In2Mn1Se4,0.0,0.21447,0.0,1.078989
In2Mn1Te4,0.386251,0.989026,0.386251,0.989026
In2Mn2O7,1.213688,2.450996,1.408503,2.696513
In2Na2S6Si1,2.218551,3.283771,2.218551,3.283771
In2O3,0.88434,2.259514,4.041424,5.561579
In2O4Sr1,1.76429,3.180887,3.617022,5.086738
In2O5P1,2.026106,2.970201,4.016887,5.235938
In2O5Sr2,1.005911,2.23332,1.005911,2.23332
In2O5Ti1,1.852748,3.216998,2.955606,4.343632
In2O6Te1,0.918934,2.493616,3.685214,5.369088
In2O7Si2,1.953424,3.553181,4.273292,5.997098
In2P2Sr1,0.218336,0.872799,0.218336,0.872799
In2P4Sr3,0.595342,1.253051,0.595342,1.253051
In2Pb1S4,1.386687,2.096083,1.820807,2.608827
In2Rb4S5,2.013885,3.001169,2.013885,3.001169
In2S3,1.005294,1.883385,2.338848,3.280386
In2S4Zn1,1.254348,2.174153,3.056175,4.047405
In2S5Zn2,0.262991,0.726147,0.262991,0.726147
In2S6Zn3,0.256474,0.656628,0.256474,0.656628
In2S7Sn3,0.486824,0.989536,0.993032,1.545971
In2Sb6Sr5,0.061723,0.541653,0.178516,0.541653
In2Se3,0.084912,0.656955,2.674088,3.523198
In2Se4Zn1,1.05608,1.831105,1.05608,1.831105
In2Sr1Te4,0.876772,1.53738,1.916203,2.611031
In2Te4Zn1,0.903327,1.510415,0.903327,1.510415
In3Na1S5,1.232628,2.093529,2.237781,3.132724
In3Na7Se8,1.086892,1.924405,1.086892,1.924405
In3O12Sb5,2.335955,3.396219,3.283259,4.25545
In3Rb1S5,1.20223,1.998303,1.20223,1.998303
In3Ru1,0.220308,0.560098,0.732869,1.158619
In3S5Tl1,1.688631,2.47174,2.466804,3.318365
In4O7Rb2,1.4078469999999998,2.760276,4.933704,6.533144
In4Se3,0.175435,0.525258,0.350893,0.525258
In4Te3,0.134273,0.40363,0.295275,0.40363
In5K1S8,1.279848,2.155182,2.944247,3.949425
In5Rb1S8,1.283357,2.148959,2.964017,3.958843
In5S6Tl1,0.983601,1.6854,1.220893,1.945429
In5S7Tl1,0.616383,1.251326,0.616383,1.251326
In6O12Te1,0.915779,2.32794,4.452387,2.32794
In6O12W1,1.962527,3.492292,3.252604,4.584044
In6S7,0.194538,0.724926,0.194538,0.724926
In6Se7,0.0,0.328297,0.0,0.328297
In7Te10,0.839426,1.532801,1.203242,1.906704
Ir1K2Na2O4,0.311162,2.256655,0.465998,2.424826
Ir1K3Li1O4,0.39761,2.339819,0.39761,2.339819
Ir1K4O4,0.372021,2.289401,0.526834,2.492139
Ir1La3O7,0.0,0.306738,0.0,0.781371
Ir1N2,0.464463,1.140953,1.19778,1.930675
Ir1N6Na3O12,2.572472,4.35843,2.572472,4.35843
Ir1Na2O3,0.0,0.332489,0.0,0.332489
Ir1Na4O4,0.428365,2.371046,0.605268,2.578843
Ir1Ni1O6Sr2,0.127101,1.562364,0.63749,2.512722
Ir1O2,0.0,0.436824,0.0,0.436824
Ir1O9P3,2.372034,4.187638,2.61247,4.44778
Ir1P1Se1,1.4854960000000004,2.2863629999999997,2.383519,3.187998
Ir1P1Te1,0.8200120000000002,1.4748999999999999,1.099069,1.781621
Ir1P2,0.659073,1.169288,1.648217,2.312219
Ir1P3,0.155703,0.729306,0.494011,1.115424
Ir1S1Sb1,1.445014,2.205511,2.064439,2.798475
Ir1S2,0.503701,1.091368,0.807095,1.405583
Ir1Sb1Se1,1.156101,1.862001,1.909427,2.59347
Ir1Sb1Te1,0.705941,1.256422,1.583685,2.063823
Ir1Sb2,0.492569,0.857423,1.411075,1.981839
Ir1Sb3,0.097476,0.612042,0.097476,0.612042
Ir1Se2,0.03825,0.571564,0.668198,1.122217
Ir2O7Pb2,0.193087,0.419873,0.432005,0.621426
Ir2P2Sr1,0.403282,0.710402,0.815362,1.153758
Ir2S3,0.809658,1.727784,0.942522,1.791873
Ir2Se3Sn3,0.376028,0.977999,0.376028,0.977999
Ir2Se5Sn1,0.704536,1.282172,1.054902,1.66502
Ir2Sn3Te3,0.459153,0.9681,0.459153,0.9681
K11Li1Mn4O16,1.697173,3.193698,1.942079,3.478461
K1La1O3Pd1,0.399141,2.131373,2.297201,3.90049
K1La1O4Ti1,2.1867379999999996,3.6918099999999994,2.711292,4.246964
K1La1P2S6,2.739264,3.953847,2.811918,4.106508
K1La1P2Se6,1.964674,2.943114,2.058221,3.007779
K1La1S2,2.671083,3.556247,3.8059,4.775465
K1La1S4Si1,2.648215,3.568604,2.966392,4.090431
K1La1Se4Si1,2.124925,2.968557,2.411584,3.426433
K1La1Te2,1.688163,2.314303,2.534442,3.236972
K1Li1Mn1O2,1.915044,3.061015,3.673601,4.859709
K1Li1O1,2.294196,3.666778,4.555907,6.08952
K1Li1O2Zn1,2.722786,3.872103,2.722786,3.872103
K1Li1Se1,2.56611,3.428923,4.002526,4.860806
K1Li1Te1,2.414272,3.184106,2.414272,3.184106
K1Li3O4Pb1,1.429816,2.753203,2.732875,4.038685
K1Lu1S2,2.315788,3.354197,3.716883,4.651737
K1Mg1P1,1.708686,2.440663,2.786234,3.510409
K1Mg1Sb1,1.230784,1.874128,1.936685,2.537089
K1Mn1Na1O2,1.612023,2.664956,3.951907,5.102491
K1Mn1O4,1.797922,3.06658,1.920992,3.12339
K1Mn1O8Se2,1.302523,2.726744,3.183014,4.503472
K1Mn1P1,1.404996,2.063362,2.18288,2.868575
K1Mo1O6P1,2.484234,3.993054,2.630608,3.993054
K1Mo1O7P2,1.497715,3.77664,1.54469,3.846662
K1Mo2O13P3,1.120788,3.227313,1.176441,3.227313
K1Mo2O8Sb1,2.096499,3.020355,2.359499,3.298652
K1Mo3O14P2,0.44019,1.681266,0.649651,1.825269