material formula,Band_gap_GGA,Band_gap_HSE,Band_gap_GGA_optical,Band_gap_HSE_optical
As1Cu4K1S4,1.627197,2.330067,1.925408,2.330067
As1F11H1N1S1Xe1,2.531669,4.195956000000001,2.631822,4.306595
As1F12I1,0.680582,2.738961,0.680582,2.738961
As1F12Li1Xe3,2.762341,4.416602,2.766009,4.416602
As1F1Mn1Sr1,1.339137,1.8983160000000003,1.339137,1.8983160000000003
As1F1Sr1Zn1,0.914581,1.467041,0.914581,1.467041
As1F3,5.310582,6.769411,5.502892,6.995119
As1F5,4.551216,7.001308,4.551216,7.001308
As1F5N4S4,1.72391,2.455939,2.162884,3.035052
As1F6H3O1,4.818524,7.305293,5.555593,8.078204
As1F6I1Se6,1.461651,2.266305,1.627963,2.451794
As1F6I3,1.321978,2.38596,1.450474,2.507796
As1F6I5,1.279169,2.285688,1.39095,2.366355
As1F6N1O2,2.868992,5.231202,3.108833,5.605788
As1F6N1S2,2.575922,3.167052,2.575922,3.167052
As1F7Hg1,2.382968,4.2390859999999995,3.057549,4.937437
As1F7Kr1,2.477038,4.679532,2.564774,4.772102
As1Fe1Li1O4,1.902739,2.490073,3.559687,4.225966
As1Fe1O4,1.788748,3.063724,1.995625,3.262808
As1Fe1Te1,0.6406790000000004,1.5568790000000003,1.224446,1.5568790000000003
As1Ga1,0.1812,0.952523,0.1812,0.952523
As1Ga1O4,2.977586,4.840491,4.992829,6.994201
As1Ge1,0.132596,0.648635,0.719442,1.221085
As1Ge1Se1,1.453316,2.235262,1.881127,2.619881
As1H1Hg1O5Zn1,1.542789,2.981224,3.664309,2.981224
As1H1Mn2O5,1.646337,2.758778,3.3916,4.660684
As1H1O4Pb1,2.962896,4.302123,2.962896,4.302123
As1H1O5Sr1Zn1,3.22124,4.5498840000000005,3.22124,4.5498840000000005
As1H1O5Te1,3.130457,4.597122,3.616863,5.09533
As1H1O5Zn2,2.667483,3.897368,4.411604,5.84451
As1H2In1O5,1.997647,3.797713,3.251404,5.25735
As1H2Mn1O5,1.481238,3.05986,3.53214,5.14275
As1H4Na1O6Zn1,3.295256,5.038712,3.295256,7.302541
As1Hg1O3,1.240243,2.601395,1.240243,2.601395
As1Hg1S3Tl1,0.124343,0.908073,0.124343,0.908073
As1Hg3I1Se4,1.2128720000000002,2.043278,2.013097,2.043278
As1Hg3O5,1.389799,2.381764,2.623231,2.918005
As1Hg3S3Sb1,1.454843,2.083132,1.696424,2.338597
As1Hg4I5,0.943776,1.7518479999999998,0.943776,1.7518479999999998
As1I1Se1,1.138721,1.7535489999999996,1.18675,1.854056
As1I3,2.165271,2.822752,2.35994,3.023524
As1I3S24,2.055873,3.0093360000000002,2.661211,3.722212
As1In1,0.0,0.095286,0.0,0.095286
As1K1,0.664029,1.230282,0.664029,1.230282
As1K1Li2,0.723736,1.350096,0.723736,1.350096
As1K1Mg1,1.113006,1.78812,2.474979,3.145197
As1K1Mo1O6,2.324071,3.802726,2.861592,4.350656
As1K1Ni1O4,2.901351,4.188802,4.221339,5.315843
As1K1O2,3.866478,5.111795,4.003733,5.233147
As1K1O3,3.151337,4.936528,4.787986,6.759176
As1K1O5Sn1,2.118206,3.822359,2.118206,3.822359
As1K1S5Sn1,1.720483,2.513686,1.933421,2.710988
As1K1Se2,1.480089,2.247087,2.230178,3.075723
As1K1Sn1,0.305661,0.698388,1.278304,1.839549
As1K1Zn1,0.430909,1.058981,4.086775,4.797018
As1K2Te2,0.852658,1.510451,1.006588,1.670137
As1K3,0.088063,0.615704,1.775027,2.392537
As1K3Nb2Se11,1.126245,1.844395,1.373416,2.141084
As1K3S3,2.636454,3.559491,2.665824,3.604719
As1K3S4,2.004254,3.152144,2.004254,3.152144
As1K3Se11Ta2,1.156948,1.884719,1.516873,2.294517
As1K3Se3,2.13335,2.980927,2.174098,3.033168
As1K3Se4,1.117119,2.020273,1.319732,2.233252
As1La1,0.0,0.024186,0.0,1.977109
As1La1O1Zn1,0.717893,1.296155,0.717893,1.296155
As1La1O3,2.704954,3.849542,3.910896,5.30406
As1La1S1,0.10121100000000016,0.072044,0.10121100000000016,0.072044
As1La1Te1,0.1377410000000001,0.5213580000000002,0.765459,1.169324
As1Li1,0.348583,0.937447,0.718212,1.343244
As1Li1Mg1,1.364537,1.973654,4.128342,4.942955
As1Li1Mn1O4,2.381774,3.562321,3.658374,4.946289
As1Li1Mo1O6,2.134665,3.650342,2.262879,3.820874
As1Li1Mo2O9,2.295927,3.794632,2.644401,3.794632
As1Li1Ni1O4,3.19234,4.583513,3.19234,4.583513
As1Li1O3,2.948246,4.770447,3.854407,5.730303
As1Li1O5Ti1,2.9394419999999997,4.582654,3.12085,4.81739
As1Li1O5V1,1.88389,3.08145,2.118015,3.358513
As1Li1S2,0.605876,0.8599560000000004,0.973895,1.243121
As1Li1Se2,0.45603,0.7827379999999997,0.760531,1.150527
As1Li1Sr1,1.02982,1.6789070000000001,1.02982,1.6789070000000001
As1Li1Zn1,1.015464,1.6247639999999994,1.015464,1.6247639999999994
As1Li3,0.642739,1.221675,3.580333,4.410273
As1Li3S3,2.302252,3.22555,2.723442,3.657782
As1Lu1,0.0,0.243447,0.0,1.628677
As1Lu1Se1,0.0,0.03871400000000058,0.0,0.514457
As1Mg1Na1,0.9740000000000002,1.67274,1.774466,2.413882
As1Mn1Na1,0.943904,1.603509,0.943904,1.603509
As1Mn1Na1O4,2.27726,3.445154,3.637795,4.916344
As1Mn1Rb1,0.978811,1.6288930000000001,2.061246,2.658132
As1Mo1O6Rb1,2.267947,3.775365,2.267947,3.775365
As1N9,2.782258,3.684046,2.968452,3.87602
As1Na1,0.54346,1.083039,1.016918,1.601277
As1Na1Ni1O4,2.908375,4.199084,4.27183,5.3683
As1Na1O3,2.851055,4.650301,4.365811,5.948725
As1Na1O5Ti1,2.594578,4.072624,2.993239,4.417535
As1Na1O5V1,1.5328,2.636495,1.625559,2.729877
As1Na1S2,1.307055,2.01196,2.246342,3.129362
As1Na1Se2,1.065708,1.707473,1.065708,1.707473
As1Na1Sr1,0.841825,1.5158889999999998,0.841825,1.5158889999999998
As1Na1Zn1,0.7109800000000002,1.17943,0.7109800000000002,1.17943
As1Na2Te2,1.052418,1.660269,1.290351,1.944503
As1Na3,0.163075,0.724681,0.163075,0.724681
As1Na3S3,2.529313,3.3989299999999996,2.647018,3.573401
As1Na3Se3,2.018492,2.814865,2.110685,2.934713
As1Nb2Rb3Se11,1.136326,1.868271,1.380509,2.156437
As1O1Y1Zn1,1.194234,1.784619,2.619129,3.205504
As1O4Tl3,2.646072,3.655882,3.827097,4.952038
As1O5P1,1.991856,3.8068000000000004,3.164828,5.084695
As1O5Rb1Sn1,2.059443,3.753729,2.059443,3.753729
As1O5Sb1,1.742292,3.400211,2.888258,4.662821
As1Rb1,0.576212,1.133376,0.576212,1.133376
As1Rb1Se2,1.574645,2.328908,1.885847,2.696641
As1Rb3,0.0,0.248684,0.0,2.08364
As1Rb3Se16,0.881647,1.6505739999999998,1.23485,1.97931
As1Rb3Se4,1.188851,2.133379,1.46503,2.423921
As1Ru1Te1,0.848806,1.5547399999999998,1.484073,2.235724
As1S1,1.596751,2.354422,1.984689,2.75268
As1S1Y1,0.050172999999999135,0.15965000000000007,0.050172999999999135,0.15965000000000007
As1S2,1.161835,1.9976,1.161835,1.9976
As1S2Tl1,1.535117,2.2698570000000005,1.676737,2.39176
As1S3Tl3,1.123897,1.768125,2.700736,3.363809
As1S4Tl3,1.460647,2.283306,1.646506,2.511854
As1Se1Y1,0.035107,0.13470300000000002,0.290456,0.388286
As1Se3Tl3,0.680086,1.2319390000000001,0.680086,1.2319390000000001
As1Se4Tl3,0.616569,1.295802,0.775607,1.467952
As1Si1,1.056392,1.661409,1.620668,2.250993
As1Sr1,0.0,0.591208,0.0,2.420722
As1Sr2,0.0,0.17049,0.0,0.659433
As1Zn1,0.559307,1.048958,0.973405,1.523686
As2Au1K5,0.315713,0.896703,1.369793,1.967462
As2B12,2.641528,3.45932,2.641528,3.45932
As2B1Cs3,1.534607,2.19036,2.101297,2.759653
As2B1K3,1.295127,1.945778,2.412002,3.122374
As2B1Rb3,1.279487,1.940265,2.493537,3.213042
As2Ba1,0.365428,0.863521,0.811539,1.376408
As2Ba1Cd1O7,2.569989,4.285128,3.97086,5.802915
As2Ba1Cd2,0.1281699999999999,0.7920660000000002,0.1281699999999999,0.7920660000000002
As2Ba1Co1O7,2.637964,3.942961,3.15941,4.810297
As2Ba1Co2O8,2.1024999999999996,3.4054999999999995,2.828053,4.49086
As2Ba1Cu2O8,1.803045,3.867966,1.922304,3.927934
As2Ba1Ga2,1.0992250000000001,1.6732829999999996,1.380384,1.969364
As2Ba1Ge2,0.02242199999999972,0.5803659999999997,0.373943,0.961837
As2Ba1H2O9Zn2,3.439863,5.093071999999999,4.31906,6.028248
As2Ba1Hg1O7,1.483405,2.966365,2.9146,4.546766
As2Ba1Mg2,1.0539360000000002,1.6732280000000002,2.118842,2.832614
As2Ba1Ni2O8,2.919407,3.941445,4.218229,4.554844
As2Ba1O6,2.741414,4.4066089999999996,2.741414,4.4066089999999996
As2Ba1Zn2,0.0,0.19023900000000005,0.0,1.202145
As2Ba2Cd1,0.3831039999999999,0.9879520000000002,0.3831039999999999,0.9879520000000002
As2Ba2Ge1,0.5003120000000001,0.8631359999999999,0.839179,1.243604
As2Ba2Mn2O1,1.066841,1.721041,1.066841,1.721041
As2Ba2O2Zn3,0.456402,1.123888,0.456402,1.272935
As2Ba2Se5,0.9123329999999998,1.546646,1.132605,1.770696
As2Ba2Zn1,0.6005439999999997,1.148498,1.724951,2.39166
As2Ba3O8,3.952069,5.805314999999999,5.080439,6.91678
As2Ba4O1,0.617981,1.206106,0.617981,1.206106
As2Be1K4,0.871752,1.490578,2.505529,3.196585
As2Be2Ca1,0.642396,1.2880140000000004,2.177342,2.909903
As2Be2Mg1,0.400613,0.9761220000000002,2.392432,3.198845
As2C12F12N12Zn1,3.952139,6.264702,3.996798,6.264702
As2Ca1Cd2,0.203862,0.8972359999999999,0.203862,0.8972359999999999
As2Ca1Ga2,0.0,0.31540100000000004,0.0,1.254224
As2Ca1H6Mn1O10,2.711756,3.911251,4.023818,5.380623
As2Ca1Mg2,1.239718,1.907953,2.060169,2.76693
As2Ca1Zn2,0.712168,1.2478220000000002,1.263183,1.2478220000000002
As2Ca2Cd1,0.8609260000000001,1.530141,0.8609260000000001,1.530141
As2Ca2Cu1H4O10,2.015163,4.180304,2.103488,4.272175
As2Ca2H4Mn1O10,2.556981,3.773231,3.923143,5.286002
As2Ca3H1Li1,1.429929,2.166467,1.967657,2.765469
As2Ca4O1,1.170625,1.95965,2.043594,2.952276
As2Cd1,0.130143,0.792656,1.594137,2.227176
As2Cd1Ge1,0.035018,0.09111599999999997,0.083036,0.463872
As2Cd1Ge1K1,0.6634659999999999,1.2193679999999998,1.635623,2.284395
As2Cd1Ge1Rb1,0.690131,1.2503669999999998,1.585263,2.233015
As2Cd1Hg4I4,0.471341,1.339583,0.471341,1.339583
As2Cd1K4,0.683169,1.272741,2.21754,2.839849
As2Cd1O6,2.203362,3.956795,5.202204,7.169846
As2Cd1O7Sr1,2.448934,4.166363,4.052981,5.904163
As2Cd1Si1,0.343373,1.136841,0.343373,1.136841
As2Cd1Sn1,0.036726,0.04157999999999995,0.111805,0.351825
As2Cd1Sr2,0.525407,1.185787,0.525407,1.185787
As2Cd2O7,1.565907,3.259892,4.360214,6.18231
As2Cd2Sr1,0.10070600000000018,0.787998,0.10070600000000018,0.787998
As2Cd3,0.0,0.080421,0.0,0.080421
As2Cl13Sb1,1.224211,2.3154630000000003,1.286475,2.360799
As2Cl1I1Pb4S6,1.753648,2.489103,2.082919,2.816246
As2Cl4F6,2.831853,4.750712,3.005577,4.934946
As2Cl9Cs3,2.590312,3.363921,2.590312,3.363921
As2Co1,0.101692,0.403039,0.763586,1.128278
As2Co1O6,1.987183,3.4843459999999995,3.654262,5.698885
As2Co2O5,2.2002460000000004,3.594704,2.390446,3.853598
As2Co2O7,1.8590499999999999,3.2771860000000004,2.931435,4.745425
As2Co2O8Sr1,2.27318,3.617001,2.778958,4.447608
As2Cs2Pd1,0.820545,1.6691290000000003,1.563874,2.550923
As2Cs2Se9Sn1,0.589929,1.336254,1.015398,1.786759
As2Cs2Si1,1.062704,1.796147,1.96072,2.719929
As2Cs2Sn1,0.765503,1.4704019999999998,1.515173,2.281972
As2Cu1Fe2H2O10,1.5674470000000003,3.2495540000000003,1.921166,3.422393
As2Cu1K5,0.26843,0.847803,1.642033,2.238522
As2Cu1Na4O8,1.804773,3.812183,5.386502,7.442998
As2Cu1O4,1.691696,3.429871,2.124893,3.858057
As2Cu1O8Zn2,1.632562,3.479601,4.734961,6.486403
As2Cu2O7,1.460043,3.5369669999999998,3.793181,5.596892
As2Cu3H2O10Pb1,1.374054,3.432241,1.545918,3.432241
As2Cu3K3,1.488245,2.037163,1.488245,2.037163
As2Cu3O8,1.563949,3.3467530000000005,1.767606,3.550157
As2Cu4O9,1.440049,3.4758449999999996,1.586989,3.62618
As2Cu5O10,1.1864810000000001,3.142342,1.401054,3.303614
As2F12Hg3,2.651516,3.508925,3.001055,3.871625
As2F12I4,0.541491,1.296982,0.593387,1.332215
As2F12N2S1Se2,2.285268,3.319005,2.456758,3.500028
As2F12N2Se3,2.311028,3.276265,2.478572,3.450256
As2Fe1,0.281711,1.620818,1.246564,2.54324
As2Fe1Li1O7,2.630749,4.074203,2.735052,4.183067
As2Fe2H2O10Zn1,2.506118,3.764154,2.600777,3.764154
As2Fe4O11,2.198853,3.3921499999999996,2.24762,3.581647
As2Ga1K1O7,2.708396,4.514588,3.724202,5.598973
As2Ga1K2,0.986273,1.616427,1.723225,2.324971
As2Ga1K2Li1,0.760417,1.397822,2.051566,2.800367
As2Ga1K2Na1,0.808349,1.468483,0.808349,1.468483
As2Ga1Li1Na2,0.735533,1.38856,0.735533,1.38856
As2Ga1Li1O7,2.501416,4.338193,4.87218,6.945571
As2Ga1Rb2,0.827798,1.446988,1.651805,2.238001
As2Ga2Sr1,0.13502800000000015,0.6714090000000001,0.13502800000000015,0.6714090000000001
As2Ge1,0.669414,1.253428,1.172649,1.745308
As2Ge1K2,0.779941,1.496755,1.984247,2.837681
As2Ge1Mg1,0.525745,1.173638,0.525745,1.173638
As2Ge1Te4,0.335461,0.5727590000000005,0.335461,0.5727590000000005
As2Ge1Zn1,0.202096,0.8350529999999998,0.202096,0.8350529999999998
As2Ge2Te5,0.394183,0.627139,0.8628,1.149439
As2Ge3Te6,0.363669,0.525385,0.632914,0.847963
As2Ge4Te7,0.285212,0.37234000000000034,0.480105,0.608291
As2Ge5Te8,0.198114,0.33078499999999966,0.408637,0.597192
As2H16O16Zn3,3.631065,5.226901,5.428834,7.266446
As2H1Li1Sr3,1.458513,2.172485,1.890197,2.626435
As2H2Hg3O8,2.209009,3.352638,2.580495,3.774995
As2H8O12Zn3,3.254536,4.926454,5.379034,7.253335
As2He1O3,3.95065,5.237202,4.528119,5.836473
As2Hg1K4,0.673794,1.272145,2.225788,2.848996
As2Hg1O6,0.823291,2.390836,4.455641,6.268859
As2Hg1O7Sr1,1.476509,2.975615,2.96488,4.584557
As2Hg6O8,0.474832,1.303298,1.714148,2.568173
As2In1K2Li1,0.610286,1.231818,1.925608,2.654334
As2In1K2Na1,0.604702,1.241681,0.604702,1.241681
As2Ir1,0.828495,1.440193,1.618366,2.341693
As2K2Ni1,0.985407,1.36591,1.798124,2.707021
As2K2Pd1,0.489437,1.40631,1.280409,1.968699
As2K2Pt1,0.0,0.674361,0.0,1.376108
As2K2S6Sn1,1.081194,1.841731,2.809368,3.782015
As2K2Si1,0.994444,1.707569,2.473082,3.327834
As2K4Zn1,0.708372,1.3376020000000002,2.214544,2.847895
As2La1,0.211923,0.53547,1.016949,1.594926
As2La1Li3,0.500383,0.8907350000000003,1.953126,2.679738
As2Mg1Si1,1.21075,1.8080900000000004,1.21075,1.8080900000000004
As2Mg2Sr1,1.328418,1.9695510000000005,2.185209,2.906846
As2Mg3,0.549672,1.311475,1.11748,1.876544
As2Mn1O6,1.908855,3.028624,3.652947,4.852764
As2Mn1S5Tl2,1.702671,2.466946,2.134058,2.874275
As2Mn2O7,1.954848,3.145057,1.954848,3.145057
As2Mo1O7,2.290704,3.356744,2.768106,3.83195
As2Mo1O9Rb2,2.391698,3.829748,2.639559,4.087609
As2Mo2O12Sr1,2.37227,3.856186,2.913887,4.407832
As2Na2,0.582229,1.18257,1.544812,2.209142
As2Ni1O6,2.377614,4.056883,3.910809,5.319778
As2Ni2O7,2.704886,4.116455,2.704886,5.316978
As2Ni3O8,2.272588,3.740389,3.474762,4.780798
As2O14Pb3Te1Zn3,2.923608,4.153738,3.734082,5.082232
As2O1Sr4,1.159574,1.836986,1.614008,2.310675
As2O3,4.056511,5.295412,4.431151,5.709592
As2O4,3.51525,5.106115,4.25443,5.781219
As2O4Pb1,2.751073,3.804088,2.751073,3.804088
As2O5,1.342631,3.073161,1.342631,3.073161
As2O5Pb2,2.873223,3.8418680000000003,3.122845,4.107554
As2O6Pb1,2.086387,3.3962369999999997,3.375496,4.731952
As2O7Ti1,2.436184,4.022633,2.779865,4.335081
As2Os1,0.687251,1.306544,1.580815,2.306772
As2Pb1S4,0.576055,1.0578989999999995,1.817862,2.379796
As2Pt1,0.295753,0.74957,1.445691,1.987468
As2Pt1Rb2,0.087962,0.877971,1.531388,2.306824
As2Rb2Si1,0.947142,1.692943,2.200079,3.032398
As2Rb2Sn1,0.657703,1.375427,1.715822,2.507616
As2Rh1,0.249452,0.685879,1.168971,1.74854
As2Ru1,0.452249,0.970016,1.620439,2.323453
As2S3,1.771451,2.650479,2.561506,3.518908
As2S6Sn1Tl2,0.944238,1.673509,2.445288,3.33551
As2Se3,0.599414,1.099532,1.299021,1.83328
As2Si1,0.97287,1.588388,1.352522,1.982123
As2Si1Zn1,1.112092,1.6726139999999998,1.112092,1.6726139999999998
As2Sn1Zn1,0.01561699999999977,0.5519259999999999,0.01561699999999977,0.5519259999999999
As2Sn2Sr1,0.0,0.04142599999999952,0.0,0.04142599999999952
As2Sr1Zn2,0.5672270000000004,1.0944310000000002,0.979683,1.558916
As2Sr2,0.0,0.591522,0.0,2.423205
As2Te3,0.310543,0.592548,1.020711,1.340839
As2Zn1,0.296561,0.918728,0.296561,0.918728
As2Zn3,0.168947,0.581273,0.354401,0.728098
As3Ba1,0.0,0.177128,0.0,0.597147
As3Ba2Cd2,0.0,0.578884,0.0,1.186698
As3Ba3In1,0.53058,1.0272159999999997,0.53058,1.0272159999999997
As3Ba3Nb1O1,1.048929,1.604014,1.173521,1.714279
As3Ba3O1Ta1,1.062274,1.620211,1.245254,1.792347
As3Br1Cd2,0.732927,1.38274,2.185713,2.971923
As3Br1Hg2,0.822652,1.441833,1.950915,2.627105
As3Ca1,0.0,0.089571,0.0,1.635506
As3Ca3Ga1,0.367797,0.9374269999999996,0.367797,0.9374269999999996
As3Cd2I1,0.751734,1.393288,2.117071,2.846304
As3Cd4Cs1,0.175978,0.7224809999999999,0.175978,0.7224809999999999
As3Cl1O9Pb5,2.046636,2.944517,2.345598,3.271474
As3Co1,0.0,0.515719,0.0,0.515719
As3Cs1O12Zr2,4.344107999999999,6.254313,4.344107999999999,6.254313
As3Cs1O8,2.229847,3.984133,2.229847,3.984133
As3Cs1Zn4,0.067083,0.48785900000000026,0.067083,0.48785900000000026
As3Cs5Ge1,0.536031,1.1929709999999998,1.196304,1.888056
As3Cs5Si1,0.599643,1.258438,1.329878,1.938358
As3Cs6In1,0.534964,1.122102,1.517166,2.154538
As3Cu4Na1O12,1.651361,3.649103,1.718209,3.778843
As3Cu4O12Pb1,0.128464,1.381266,0.339907,1.540308
As3F6Sb1Se4,1.7318,2.649432,2.04365,3.036391
As3Ge1K1Na4,0.615014,1.09234,1.260096,1.894034
As3Ge1Na5,0.50262,1.125635,0.50262,1.125635
As3Ge3K1,0.583438,1.0382860000000003,1.394917,1.88872
As3Ge3Rb1,0.640068,1.0987649999999998,1.438774,1.939179
As3H1Sr5,0.6662750000000002,1.282601,0.831939,1.440422
As3H2Na1O9,2.628273,4.394046,3.831813,4.394046
As3H4Mn1N1S6,2.027006,2.826823,2.17695,3.568057
As3Hf1Na5,0.898599,1.5353350000000001,0.930794,1.574449
As3In2K3,0.585011,1.210445,1.466744,2.105132
As3In2Na3O12,2.245545,3.96482,2.245545,3.96482
As3Ir1,0.107833,0.719151,0.107833,0.719151
As3K1Sn3,0.4769359999999998,0.9380359999999999,1.191817,1.684745
As3K3Na2Sn1,0.583805,1.185678,1.521668,1.185678
As3K5Sn1,0.516517,1.096845,0.516517,1.096845
As3K6Nb1O1,1.059809,1.652328,1.510605,2.114739
As3La1Zn3,0.16349899999999984,0.4828830000000002,0.46831,0.788997
As3Li1O12Zr2,3.750986,5.623068,3.750986,5.623068
As3Na1O12Ti2,2.174764,3.792418,2.174764,3.792418
As3Na1Zn4,0.274882,0.699534,0.274882,0.699534
As3Na5Si1,0.789021,1.4851930000000002,1.546891,2.229333
As3Na5Sn1,0.412032,1.0104909999999998,0.412032,1.0104909999999998
As3O1Sr3Ta1,1.275819,1.860775,1.528826,2.111027
As3Rb1Sn3,0.576228,1.0516390000000002,1.277863,1.787899
As3Rb1Zn4,0.162911,0.590662,0.162911,0.590662
As3Rb5Si1,0.347619,1.017171,1.218135,1.885315
As3Sr1,0.0,0.013506,0.0,0.013506
As3Sr2Zn2,0.09786899999999976,0.6983959999999998,0.491433,1.124276
As3Tc2,0.0,0.096368,0.0,0.916686
As4Ba3Cd2,0.0,0.39449500000000004,0.0,1.628595
As4Ba3Li4,0.0,0.4519120000000001,0.0,2.559935
As4Ba3Si2,0.8009390000000001,1.4036369999999998,0.8009390000000001,1.4036369999999998
As4Ba3Sn2,0.7358769999999999,1.264682,0.919883,1.465652
As4Ba3Zn2,0.0,0.13913200000000003,0.0,0.13913200000000003
As4Br16Ga4Hg11,0.889429,1.433942,1.994944,2.546923
As4Br1K1O6,2.790523,4.018767,4.148464,5.279106
As4Ca1Na2O12,2.614949,4.447134,2.614949,4.447134
As4Ca3Ge2,0.597727,1.1795019999999998,0.859158,1.514589
As4Ca3In2,0.17643699999999995,0.7390750000000001,0.17643699999999995,0.7390750000000001
As4Ca3Si2,0.792818,1.4263789999999994,0.792818,1.4263789999999994
As4Cd2Ge1,0.023816,0.5859300000000003,0.755669,1.249653
As4Cd5Rb2,0.0,0.19720000000000015,0.0,1.672307
As4Cl1Cu1S3,1.8717,2.705893,1.8717,2.705893
As4Cl2Cu2S3,1.777138,2.591792,1.99995,2.831074
As4Cu1H10O16,1.906575,4.001868,4.080112,5.928069
As4Cu3K2O12,1.315063,3.194887,2.031652,3.607995
As4Cu6Hg3S12,0.522287,1.224824,0.522287,1.224824
As4Cu6S9,0.609692,1.1602519999999998,0.845054,1.459944
As4F6S4,2.35062,3.340424,2.62229,3.580282
As4Ga1Na3Sr3,0.441558,1.042108,0.441558,1.042108
As4Ga2Sr3,0.6853400000000001,1.268713,0.893725,1.508375
As4Ga3K3,0.832407,1.518736,0.832407,1.518736
As4Ge1Te7,0.384028,0.6061359999999993,0.915798,1.186025
As4I1K1O6,2.355265,3.442183,3.443601,4.413113
As4K2Zn5,0.552686,1.046257,1.385483,1.778456
As4K7Nb1,1.095194,1.777789,1.095194,1.777789
As4K7Ta1,1.037218,1.7331729999999999,1.037218,1.7331729999999999
As4Mg1,0.793953,1.407985,1.001573,1.550941
As4Na2O11,2.074971,3.818543,3.818883,5.75405
As4Na8Ti1,1.078919,1.6941399999999998,1.078919,1.6941399999999998
As4Nb1Rb7,0.696472,1.319075,1.244284,1.859951
As4Pb9S15,1.521207,2.15923,1.824061,2.493383
As4Rb2Zn5,0.465852,0.9411920000000003,1.646633,2.170977
As4S3,1.976483,2.861081,1.976483,2.861081
As4S4,1.680993,2.470675,1.935605,2.73658
As4S5,1.709575,2.537011,2.400764,3.305801
As4Se3,1.244346,2.010582,1.244346,2.010582
As4Se4,1.123393,1.83498,1.421389,2.434018
As4Si2Sr3,0.8862419999999998,1.5036389999999997,2.215401,2.986559
As4Sn2Sr3,0.664015,1.204087,0.886846,1.443843
As4Sr3,0.5994,1.124973,1.508356,2.115251
As5B1O20Pb6,3.03457,4.300875,3.351063,4.300875
As5Cs7In3Nb1,1.007073,1.504282,1.007073,1.504282
As5I1Te7,0.264487,0.6294469999999999,0.990391,1.437117
As6Ba1Pt4,0.21835300000000046,0.5963899999999995,0.96537,1.425329
As6Ba2Cu7O24,0.896119,2.96373,1.304902,3.400905
As6Ba4Cd3Li2,0.299666,0.92423,0.462761,1.05296
As6Bi1K3Se12,1.038516,1.648608,1.038516,1.648608
As6Ca5Ga2,0.098536,0.6681920000000003,0.131736,0.686934
As6Ca5Sn2,0.257058,0.7960759999999998,0.93412,1.541341
As6Cs4,0.418106,0.943213,0.915501,1.205568
As6Cs7In3,0.230252,0.743916,0.506043,1.043389
As6Cu7O24Pb2,1.415012,3.31359,1.551169,3.31359
As6Fe7O24,1.365497,1.611325,1.452041,1.703949