material formula,Band_gap_GGA,Band_gap_HSE,Band_gap_GGA_optical,Band_gap_HSE_optical
C4K3N4O2Tc1,2.316406,3.86084,2.316406,3.86084
C4Li1N6Rb1,4.403625,5.623415,5.034008,6.270945
C4Li2O4,2.217455,3.777188,3.091198,4.797514
C4Mn1N1O5,2.337128,3.629114,2.512898,3.856
C4Mn1N6,3.633463,4.591785,3.88501,4.841392
C4N3Rb1,3.775366,5.090555,3.837539,5.173885
C4N4Ni1Tl2,2.774573,3.502572,3.845561,4.68465
C4N4Ni1Zn1,4.643487,5.354734,5.126945,5.825666
C4N4Pd1Tl2,2.6784359999999996,3.72717,3.6531,4.800545
C4N4Pd1Zn1,4.160815,5.840326,4.261573,5.918811
C4N4Pt1Rb2,2.390972,3.646907,4.760593,6.325764
C4N4Pt1Tl2,2.570265,3.485523,3.587122,4.589175
C4Na2O8Sn1,2.605087,3.961663,2.837338,4.232452
C4O2Se1,1.333029,2.2123009999999996,1.333029,2.2123009999999996
C4O4Pb1,2.976103,4.370241,3.455103,4.955517
C4O4Rb2,2.687513,4.245498,3.052813,4.688789
C4O4Ru1,2.237061,2.931138,2.435408,3.356758
C5Fe1N6O1Tl2,2.456471,3.508072,2.488436,3.561346
C5Fe1O5,3.657045,4.951419,3.836483,5.200848
C5H9Lu1N2O8,4.46989,6.285004000000001,4.775688,6.639136
C5I1Mn1O5,2.650825,3.792661,2.957418,3.792661
C5I1O5Tc1,2.269845,3.374215,2.595051,3.374215
C5Ir4,0.429066,0.947422,1.056736,1.633771
C5N4,5.469359,7.053225,5.688733,7.305121
C5O5P4S3W1,2.364136,3.282485,2.463944,3.395089
C6Cd2N6Os1,2.470087,3.703882,2.470087,3.703882
C6Cd2N6Ru1,2.651535,3.994766,2.651535,3.994766
C6Cl8D6Fe3N6,1.4538719999999998,3.5951560000000002,1.549018,3.682532
C6Co1Cr1H18N12,3.824127,2.47883,3.971588,2.47883
C6Co1Fe1H18N12,0.0,2.543534,0.0,2.555436
C6Co1H12N8O8,2.209949,3.563458,2.713989,4.023312
C6Co1H18Mn1N12,2.136887,1.8342740000000002,2.15847,1.8342740000000002
C6Co1Lu1N6,4.669211,6.204630999999999,4.858222,6.67168
C6Cr1Cs1Mn1N6,2.420709,3.134061,2.885886,3.599149
C6Cr1Cs1N6Ni1,3.760517,4.574723,3.996783,4.757336
C6Cr1Cs2K1N6,4.034354,5.012947,4.075191,5.039205
C6Cr1Cs2Li1N6,3.732562,4.699677,4.227013,5.186638
C6Cr1Cs2N6Na1,3.944959,4.918962,3.998475,4.956804
C6Cr1N6Na1Rb2,3.984196,4.97849,3.984196,4.97849
C6Cs2K1N6Rh1,5.473903,7.060601,5.475245,7.121055
C6Cu1Fe1K2N6,1.418977,3.108285,4.846461,6.205489
C6Cu1H4N8O4,1.557088,3.519938,2.723194,4.346312
C6F10,4.594906,6.162108,4.670628,6.252356
C6F5H3O3Se1,3.3868160000000005,4.609219,3.522986,4.747806
C6Fe1H12N8O8,2.05793,2.580876,2.245619,2.828868
C6Fe1K1La1N6,3.71344,5.205802,3.728446,5.205802
C6Fe1K2N6Ni1,4.06808,5.076842,4.228847,5.193848
C6Fe1Mn2N6,3.752346,4.965846,4.337878,5.56505
C6Fe1N6Tl4,3.218315,4.078922,3.692473,4.627376
C6H12N6Ni1O10,0.02264400000000011,0.694982,0.02264400000000011,0.694982
C6N8,0.349568,1.694579,1.386881,4.241874
C6Na2O6,1.025195,1.557967,1.324402,1.918814
C6O8Tl4,2.637299,3.88826,2.939714,4.203206
C7Lu4,0.0,0.21528,0.0,2.118226
C7Y4,0.600714,1.189889,0.643144,1.250821
C8Ca1N6,2.998826,4.289035,3.236661,4.563652
C8Cd1H10O12,2.743769,4.171099,3.040629,4.171099
C8Cr1H12N2O2S2,1.989884,3.0256,2.081168,3.150809
C8Cu1H16N8Ni1,1.911971,3.868814,3.167223,4.503956
C8Cu1N6,0.758863,2.550212,0.838298,2.647284
C8Cu3H8Na2O16,1.221031,3.255191,1.242103,3.267911
C8K1O8Y1,2.114982,3.700961,2.481292,4.097893
C8K5N8Nb1,1.774038,2.613522,2.258544,2.613522
C8O4S2,1.1248,1.529808,1.235262,1.62245
Ca1Cd2P2,0.817623,1.563516,0.817623,1.563516
Ca1Cd2Sb2,0.060513,0.73349,0.583898,1.28243
Ca1Cl1Fe1O2,2.416295,3.641979,2.544764,3.798778
Ca1Cl2,5.274103,6.931097,5.274103,6.931097
Ca1Cl2O4,2.661097,4.4717,3.331213,5.157342
Ca1Co1O1S1,1.426977,2.905624,2.996537,4.558539
Ca1Co1O6Si2,2.825335,4.767754,2.825335,5.957666
Ca1Co1O7P2,3.078679,4.875602,3.086788,4.888547
Ca1Cr1F5,2.585587,4.278204,2.585587,4.278204
Ca1Cr1F6,1.563331,2.912923,3.700968,5.572383
Ca1Cr1O3,0.5117780000000001,1.4614500000000001,0.947678,2.028766
Ca1Cr1O4,2.579675,3.67055,2.919287,4.053187
Ca1Cr1O7P2,3.034331,4.209083,5.21392,6.100386
Ca1Cr2Cu3O12Sb2,1.37663,3.468491,1.439182,3.468491
Ca1Cr2O4,2.984938,4.431132,3.222674,4.643336
Ca1Cs1D3,3.076127,4.219765,3.076127,4.219765
Ca1Cs1H3,2.798823,4.027137,2.798823,4.027137
Ca1Cs1N3O6,2.659886,4.634777,2.820598,4.798316
Ca1Cu1F4,2.581542,5.007389,2.581542,5.007389
Ca1Cu1Ge1H2O5,1.186447,3.190581,1.341219,3.325708
Ca1Cu1Ge2O6,1.46184,3.354462,3.67046,5.30843
Ca1Cu1H2O5Si1,1.715408,3.753307,2.055845,4.113912
Ca1Cu1K2N6O12,0.831828,2.523335,1.840524,3.768578
Ca1Cu1P1,0.11458,0.631087,1.321438,2.075158
Ca1Cu1Sb1,0.0,0.345671,0.0,1.468708
Ca1Cu3Fe2O12Sb2,1.712648,3.063189,1.782506,3.585507
Ca1Cu3Ge4O12,1.657368,3.176526,2.056836,4.13346
Ca1Cu3Mn4O12,0.0,0.678954,0.0,2.647872
Ca1Cu3O12Pt4,0.415845,1.867873,0.415845,1.867873
Ca1Cu3O12Sn4,1.29565,2.76702,1.29565,2.76702
Ca1Cu3O12Ti4,0.842525,2.593069,1.731318,2.831162
Ca1Cu4O24Re3Sr8,0.540541,1.858432,0.626246,1.858432
Ca1D2O2,4.372456,6.118395,4.372456,6.118395
Ca1D4N2,2.710883,4.162158,4.112381,5.626498
Ca1F2,7.323753,9.409354,9.557275,12.263175
Ca1F4Pd1,1.057064,3.287247,1.057064,3.792311
Ca1F5Ti1,0.129281,3.191559,0.439095,3.191559
Ca1F6Li1Ni1,2.777604,3.443332,2.859537,3.443332
Ca1F6Pd1,2.193584,4.281731,2.272756,4.281731
Ca1F6Pt1,2.688932,4.698907,2.76039,4.698907
Ca1F6Sn1,5.393184,7.70229,5.393184,7.70229
Ca1F6Ti1,4.466952,6.466951,4.466952,6.466951
Ca1Fe1Ge2O6,1.152644,1.59421,2.468448,1.59421
Ca1Fe1O1Se1,2.1420409999999994,3.1121190000000003,2.1420409999999994,3.686999
Ca1Fe1O2,2.244642,2.981795,3.422344,4.212025
Ca1Fe1O3,0.02367600000000003,0.7853490000000001,1.176265,2.313162
Ca1Fe1O6Si2,2.972674,3.370124,3.48722,3.370124
Ca1Fe2O4,1.769624,2.9098740000000003,1.891239,2.9098740000000003
Ca1Fe3O12Ti4,1.428802,1.871834,1.560329,2.035889
Ca1Fe4O6,0.516672,0.577886,0.653186,0.577886
Ca1Ga1Li1N2,2.118629,3.246144,2.118629,3.246144
Ca1Ga2O4,2.984403,4.590393,4.959033,6.751495
Ca1Ga2P2,0.191957,0.790448,1.155853,1.816655
Ca1Ga2S4,2.54868,3.6027369999999994,3.430526,4.531043
Ca1Ga4O7,2.4927580000000003,4.162305,2.4927580000000003,4.162305
Ca1Ge1Mg1,0.0,0.312143,0.0,0.535394
Ca1Ge1Mn1,0.079423,0.470256,0.779081,0.470256
Ca1Ge1N2,2.5165749999999996,3.670477,2.5165749999999996,3.670477
Ca1Ge1O3,1.986243,3.426463,4.549729,6.872658
Ca1Ge1O5Ti1,2.541891,4.032143,3.08733,4.661759
Ca1Ge1Sr1,0.438276,0.844255,0.980849,1.438731
Ca1Ge2O5,2.559631,4.210288,4.851979,6.7083
Ca1Ge2O6Zn1,2.565851,4.022476,4.349569,6.028814
Ca1H1Mn1O5Si1,1.693491,3.160792,2.195566,3.699128
Ca1H2,0.535313,1.448926,2.346488,3.497573
Ca1H2N2O9S2,2.538367,4.62669,2.555417,4.62669
Ca1H2O4Si1,5.201729,6.892951,5.201729,6.892951
Ca1H2O8Si2Zn2,4.038758,5.561536,4.038758,5.561536
Ca1H4Mg1Ni1,2.04904,2.86267,2.434487,3.30592
Ca1H6N3Rb1,2.013167,3.374088,3.73819,5.164765
Ca1H6O16S4,4.2894939999999995,6.600708,4.403019,6.823212
Ca1Hf1S3,1.486395,2.261131,1.486395,2.261131
Ca1Hg1O2,2.160896,3.720204,4.873388,6.476463
Ca1I2,3.755732,4.914898,4.539783,5.932559
Ca1In2O4,2.04112,3.4062650000000003,2.04112,3.4062650000000003
Ca1In2P2,0.479046,1.093545,1.457092,2.12685
Ca1Ir2P2,0.518778,0.8002969999999996,0.856578,1.212543
Ca1K2N4O8,2.381353,3.888468,2.555689,3.888468
Ca1K2N6Ni1O12,2.155035,3.812865,2.295472,3.999854
Ca1Li1N1,1.473558,2.402356,1.473558,2.402356
Ca1Li1Sb1,0.557067,1.1795489999999997,0.557067,1.1795489999999997
Ca1Li2O7Ta2,2.036435,3.406,5.367586,6.975715
Ca1Lu2S4,1.510878,2.479867,2.200518,2.479867
Ca1Mg1Si1,0.0,0.3001240000000003,0.0,0.654847
Ca1Mg2N2,2.045806,3.130388,2.045806,3.130388
Ca1Mg2Sb2,0.775277,1.370438,1.655974,2.367824
Ca1Mn1O3,0.32147000000000014,1.0964559999999999,0.32147000000000014,1.0964559999999999
Ca1Mn1O6Ti2,1.445447,2.363068,2.227343,3.209454
Ca1Mn2O4,2.119477,3.482074,2.119477,3.482074
Ca1Mo1O4,3.104952,4.452292,3.104952,4.452292
Ca1Mo1O6Sr2,1.868691,3.063111,2.068572,3.261657
Ca1N1O2Ta1,2.092338,2.977833,2.222132,3.181492
Ca1N6,3.46289,4.722587,4.37601,4.722587
Ca1Na10Sn12,0.6509710000000002,0.987887,1.161526,1.541964
Ca1Na2O12V4,2.862971,4.039417,2.935534,4.039417
Ca1Nb2O11P2,2.453778,3.804182,2.502431,3.856656
Ca1Nb2O4,1.292003,2.050521,1.540853,2.283072
Ca1Ni4O8,0.562765,1.510097,1.322945,2.376521
Ca1O1,3.642091,5.316624,6.220987,8.197258
Ca1O10P2V2,1.712057,2.781792,2.264929,3.452498
Ca1O12Pd3Ti4,0.476806,1.899661,0.593221,1.899661
Ca1O2,2.730633,4.92134,5.13041,7.210101
Ca1O24P6Sn4,3.575865,5.452784,4.455621,6.370748
Ca1O24P6Ti4,2.547891,4.080989,2.563612,4.099158
Ca1O3Pb1,0.954979,1.582336,2.701442,1.582336
Ca1O3Pt1,1.343102,3.034723,1.610511,3.339877
Ca1O3Ru1,0.0,0.575651,0.0,0.575651
Ca1O3Sn1,1.53404,3.1536049999999998,1.53404,3.1536049999999998
Ca1O3Tc1,0.0,0.416267,0.0,0.416267
Ca1O3Te1,3.5233179999999997,4.791418,3.5233179999999997,4.791418
Ca1O3Ti1,1.739137,3.0953349999999995,4.259076,5.927534
Ca1O3V1,0.307334,1.201251,1.158901,2.028405
Ca1O4Pd3,0.0,0.310548,0.0,0.310548
Ca1O4Rh2,0.931884,2.701806,1.57725,3.34716
Ca1O4Se1,3.415838,5.386882999999999,4.114161,6.188949
Ca1O4Te1,2.269178,3.788458,2.269178,3.788458
Ca1O4Tl2,0.02259,0.826055,1.776769,2.791111
Ca1O4W1,3.936819,5.375432,3.936819,5.375432
Ca1O5Si1Ti1,2.790311,4.296779,3.058499,4.599341
Ca1O5V2,1.850945,3.252845,2.077278,3.252845
Ca1O6Sb2,2.68376,4.38836,4.595454,6.484967
Ca1O6Sr2W1,2.741272,4.046697999999999,2.832674,4.141141
Ca1O6Ta2,2.406602,3.741579,2.407581,3.742179
Ca1O6V2,2.8790889999999996,4.058394,3.256564,4.473459
Ca1O8Te3,1.943055,2.975689,3.410838,4.66123
Ca1P1,0.319322,0.980343,1.5112,2.270628
Ca1P1Pt1,0.0,0.17762800000000034,0.0,1.685045
Ca1P1Se3,0.0,3.0917860000000004,0.0,3.0917860000000004
Ca1P2Zn2,0.890833,1.490326,2.063012,2.691577
Ca1P3,0.023344,0.493747,1.183893,0.493747
Ca1Pb1Sr1,0.137577,0.346964,0.156172,0.346964
Ca1Rb1Sb1,1.477223,2.115389,2.693552,3.483983
Ca1S1,2.359182,3.421917,4.174178,5.183996
Ca1S3Zr1,1.229463,2.033227,1.229463,2.033227
Ca1S4Sc2,1.265187,2.25428,1.727895,2.831853
Ca1S4Y2,1.552636,2.5006259999999996,1.552636,2.5006259999999996
Ca1Sb2Zn2,0.0,0.208854,0.0,0.208854
Ca1Se1,2.050394,3.028541,3.71767,4.96277
Ca1Si1Sr1,0.419048,0.852255,0.419048,0.852255
Ca1Sn1Sr1,0.304036,0.635773,0.973378,1.335397
Ca1Te1,0.0,0.474289,0.0,3.343066
Ca2Cd1P2,1.308224,2.058244,1.308224,2.058244
Ca2Cd1Sb2,0.427611,0.9552450000000006,0.617663,0.9552450000000006
Ca2Cd2K1Sb3,0.066141,0.5837379999999999,0.066141,0.5837379999999999
Ca2Cl1Cr1O4,1.115088,2.311092,1.421968,2.647041
Ca2Cl1Cu1Nb3O10,0.097444,1.616853,2.920218,3.794408
Ca2Cl1Fe1O3,0.531584,1.367623,1.22361,2.563369
Ca2Cl1N1,2.3451239999999998,3.5237000000000003,2.3451239999999998,5.436964
Ca2Cl2Cu1O10Te4,1.705804,3.457629,3.298178,4.480821
Ca2Co1O3,1.977798,3.442645,2.469006,4.098959
Ca2Co1O7Si2,3.050676,4.262353,3.050676,4.262353
Ca2Cr1O6Os1,0.05227299999999957,1.777098,0.05227299999999957,1.777098
Ca2Cr1O6Sb1,1.889675,3.241092,1.932012,3.28418
Ca2Cr2O5,0.568104,1.788032,0.822037,2.074389
Ca2Cs1O10Ta3,2.124354,3.427451,5.382504,7.206517
Ca2Cu1Fe1O3S1,0.486365,1.403379,1.542478,2.730527
Ca2Cu1P3Zn2,0.307293,0.928167,0.678591,1.244675
Ca2D6Fe1,1.570607,3.891077,3.252171,5.458545
Ca2D6Os1,2.734606,3.960766,4.147479,5.559276
Ca2F4,7.154527,9.228291,9.266883,11.929128
Ca2Fe1Ga1O5,2.082007,3.190942,2.164961,3.273946
Ca2Fe1Mn1O5,0.509469,1.44305,1.010518,2.059199
Ca2Fe1O6Sb1,1.798301,3.004148,1.798301,3.004148
Ca2Fe1O6W1,0.715366,0.859731,0.715366,0.859731
Ca2Fe2O5,2.036196,3.201259,2.140097,3.29431
Ca2Fe7O11,0.478955,0.80078,0.965685,1.097221
Ca2Ga1Mn1O5,1.18605,2.42057,2.315527,3.761677
Ca2Ga2O5,2.114468,3.672541,2.114468,3.672541
Ca2Ge1,0.337935,0.755618,0.337935,0.755618
Ca2Ge1N2,0.0,0.021761,0.0,0.021761
Ca2Ge1O4,2.840906,4.510566,6.248815,8.287161
Ca2Ge1S4,2.483492,3.5796100000000006,2.701671,3.823633
Ca2Ge2In1Li1,0.0,0.35493,0.0,0.35493
Ca2H1N1,1.617445,2.376602,2.835945,3.95286
Ca2H6Mn2O17Si4,0.0,1.077963,0.0,1.398641
Ca2H6Ru1,2.489138,3.884479,4.227495,5.769478
Ca2I1N1,2.330172,3.408036,4.247607,3.408036
Ca2I1Na1O6,2.736489,4.472647,3.446794,5.289213
Ca2I1P1,1.65596,2.4273529999999996,3.182958,4.234127
Ca2In1O6Os1,0.13408599999999993,1.941106,0.303867,1.941106
Ca2Mn1O6Sb1,0.686328,1.732067,2.09516,3.430135
Ca2Mn1O6Ta1,0.361211,1.483081,2.255076,3.772807
Ca2Mn1O6Ti1,0.966028,2.239711,2.208521,2.47673
Ca2Mn1O6W1,1.739743,2.478625,2.102797,2.882772
Ca2Mn2O5,1.621237,3.183272,1.621237,3.183272
Ca2Mn3O8,1.320645,2.90442,1.936843,3.590272
Ca2N2Zn1,0.674256,1.721821,2.369149,3.81914
Ca2N3P1,2.607298,3.8740069999999998,3.776933,5.144199
Ca2N3V1,1.7782810000000002,2.561744,2.058247,2.829182
Ca2Nb2O7,1.409806,2.586698,1.409806,2.586698
Ca2Nb3O10Rb1,1.470984,2.80661,4.24398,5.847502
Ca2O10Rb1Ta3,2.143795,3.453158,5.422141,7.129705
Ca2O4Pb1,1.476592,2.516177,3.314592,4.620491
Ca2O4Ru1,0.0,1.400396,0.0,1.594081
Ca2O4Sn1,2.718919,4.25704,4.96389,4.25704
Ca2O6Pd1W1,0.7158959999999994,2.408534,1.71808,2.995262
Ca2O6Sb1Sc1,0.596544,1.70799,1.41803,2.725415
Ca2O6Si1Ti1,2.227711,3.67956,2.227711,3.67956
Ca2O7Sb2,0.160178,1.283175,0.160178,1.283175
Ca2O7Ta2,2.214242,3.46909,2.214242,3.46909
Ca2O8Pt3,1.065938,2.751343,2.029485,3.737633
Ca2P2,0.323878,1.008854,1.464894,2.212803
Ca2S4Si1,3.101568,4.251786,3.1618,4.251786
Ca2S4Sn1,2.2842840000000004,3.334048,2.2842840000000004,3.334048
Ca2S5Sb2,1.080185,1.51962,1.080185,1.51962
Ca2Sb1,0.0,0.474864,0.0,1.157558
Ca2Se4Si1,2.3952310000000003,3.41151,2.3952310000000003,3.41151
Ca2Si1,0.229184,0.638139,0.229184,0.638139
Ca2Sn1,0.062749,0.375129,0.062749,0.375129
Ca3Cl2Fe2O5,2.329579,3.605648,2.378558,3.671785
Ca3Cl3P1,1.82771,2.821023,1.82771,2.821023
Ca3Co1O12Se4,2.951658,4.609959,2.9826,4.613492
Ca3Co1O6Sc1,0.835649,2.40141,1.072962,2.663544
Ca3Cu2P4Zn2,0.196163,0.81469,1.103081,1.808728
Ca3Fe1O6Rh1,1.180273,2.473517,1.180273,2.473517
Ca3Ga2N4,1.906304,2.953411,1.906304,2.953411
Ca3Ga2P4,0.9483730000000001,1.6223250000000005,1.174292,1.879917
Ca3Ge1O1,0.0,0.497532,0.0,0.497532
Ca3Ge2P4,0.694422,1.310286,1.248185,1.908783
Ca3Ge5O14Zn1,2.598681,3.923859,4.739936,6.343159
Ca3H2O10Si3,4.799771,6.498051,5.999667,7.829223
Ca3H2Sn1,0.0562809999999998,0.56705,0.0562809999999998,0.56705
Ca3I3P1,2.124263,2.9944900000000003,2.124263,2.9944900000000003
Ca3In1P3,1.036323,1.70356,1.036323,1.70356
Ca3Li1O6Os1,0.171988,2.021532,0.171988,2.021532
Ca3Li1O6Ru1,0.27927,2.277703,0.27927,2.601301
Ca3Li4N6Si2,2.31018,3.520048,3.110534,4.420498
Ca3Mn1Ni1O6,2.307407,3.569388,2.483458,3.760262
Ca3Mn1O6Zn1,2.3104459999999998,3.6696100000000005,2.46565,3.836937
Ca3Mn2O7,0.23465200000000008,1.145253,0.332639,1.145253
Ca3N1P1,0.7615030000000003,1.6021280000000004,0.7615030000000003,1.6021280000000004
Ca3N2,1.146159,2.043033,2.437273,3.571186
Ca3N3V1,1.316416,1.918973,1.354153,1.918973
Ca3Na1O6Ru1,0.402799,2.371747,0.568532,2.579144
Ca3O1Pb1,0.088268,0.234604,0.134334,0.234604
Ca3O1Si1,0.067216,0.581546,0.067216,0.581546
Ca3O1Sn1,0.0,0.3806700000000003,0.0,0.3806700000000003
Ca3O6Re1,0.0,0.281283,0.0,0.851339
Ca3O7Ti2,2.3315729999999997,3.7448950000000005,3.048892,4.513643
Ca3P4Si2,0.847272,1.513386,0.847272,1.513386
Ca4Cu3P5Zn2,0.150814,0.739466,0.407055,0.993841
Ca4D22Fe3Mg4,1.584477,3.913297,1.584477,3.913297
Ca4Ge1N4,1.399854,2.3682190000000003,1.399854,2.3682190000000003
Ca4Ir1O6,0.0,1.15584,0.0,1.15584
Ca4Mn2O7,2.18122,3.637243,2.327835,3.778391
Ca4N4Si1,1.4483290000000002,2.429762,1.4483290000000002,2.429762
Ca4N4Ti1,1.534998,2.455902,2.366158,3.427194
Ca4O1P2,1.225062,2.04445,2.200938,3.19185
Ca4O1Sb2,0.853373,1.58956,1.475716,2.30598
Ca4O6Pd1,1.882897,3.485708,1.882897,3.485708
Ca4O6Pt1,2.479102,4.092656,2.764936,4.092656
Ca4O8Ru2,0.0,1.229358,0.0,1.665
Ca5Ga2Sb6,0.0,0.362187,0.0,0.403208
Ca5H1P3,0.6343740000000002,1.3387540000000007,0.775361,1.548352
Ca5In2Sb6,0.139867,0.622096,0.27507,0.622096
Ca5N4O2W1,2.303911,3.459493,3.264985,4.453629
Ca5P8,1.115415,1.892188,1.697853,2.527265
Ca6Ga1N5,0.771148,1.599472,1.888193,2.769685
Ca6Mn1N5,0.976555,1.910307,1.077852,2.010347
Ca7Cu1O12Pt2,0.981774,2.995861,0.981774,2.995861
Ca7N9Nb1Si2,1.985529,3.164623,2.63641,3.826641
Cd1Cl1H1O1,2.47672,3.969654,2.47672,3.969654
Cd1Cl1K4O15V5,2.358861,3.31257,3.022384,4.27326
Cd1Cl1O15Rb4V5,2.344128,3.28863,2.967819,4.195123
Cd1Cl1O15Tl4V5,2.052946,2.711013,2.768425,3.744518
Cd1Cl1O3V1,2.681255,3.817142,3.005809,4.117147
Cd1Cl1S2Sb1,1.633676,2.373916,1.910666,2.632616
Cd1Cl2,3.463756,4.87382,6.769996,8.154673
Cd1Cl2O2Pb2,2.421511,3.454,3.638832,4.751303
Cd1Cl3Cs1,1.70926,3.052211,6.024534,7.316467
Cd1Cl3H3O1,3.527284,4.976059,4.268847,5.777539
Cd1Cl4Cs2,3.089179,4.430842,6.117782,7.410943
Cd1Cl4Cu1H8O4,1.665345,3.413385,4.85216,6.444933
Cd1Cr1F6,1.517747,2.792591,3.108514,4.967959
Cd1Cr1O4,2.264004,3.334809,2.293252,3.466354
Cd1Cr2H14N4O8,2.856382,3.967016,3.097267,4.199107
Cd1Cr2H4K2O10,2.745288,3.933555,3.039418,4.211838
Cd1Cr2H4O10Rb2,2.722664,3.88137,2.96476,4.084738
Cd1Cr2O4,2.298158,3.713295,2.770009,4.191308
Cd1Cr2S4,0.920657,1.8237879999999995,2.11892,2.858127
Cd1Cr2Se4,0.205956,0.956582,1.482131,2.321792
Cd1Cr4Cs2H4O16,2.674106,3.911642,2.755084,3.989282
Cd1Cs1La1Te3,1.71997,2.454384,1.71997,2.454384
Cd1Cs1Lu1Te3,1.51727,2.295615,1.51727,2.295615
Cd1Cs1N3O6,2.259169,4.161466,2.509281,4.563838
Cd1Cs1Se3Y1,2.074007,3.037386,2.074007,3.037386
Cd1Cs2I4,2.767878,3.775366,2.767878,3.775366
Cd1Cs3D5,2.626168,3.589355,2.732909,3.589355
Cd1Cs3I5,2.773725,3.825283,2.773725,3.825283
Cd1Cu1F4,2.505543,4.920096,4.744531,6.765948
Cd1Cu1O4V1,1.443119,2.182335,1.745023,2.358972
Cd1Cu1O6Se2,1.832829,3.817059,1.832829,3.866231
Cd1Cu2Ge1S4,0.694658,1.519499,0.694658,1.519499
Cd1Cu2Ge1Se4,0.019902,0.649161,0.019902,0.649161
Cd1Cu2Ge1Te4,0.0,0.493351,0.0,0.493351
Cd1Cu2S4Si1,1.384628,2.263188,1.384628,2.263188
Cd1Cu2S4Sn1,0.314184,0.967183,0.314184,0.967183
Cd1Cu2Se4Si1,0.643368,1.442417,0.643368,1.442417
Cd1Cu2Se4Sn1,0.0,0.49024,0.0,0.49024
Cd1Cu2Si1Te4,0.486282,1.064889,0.486282,1.064889
Cd1Cu2Sn1Te4,0.0,0.523149,0.0,0.523149
Cd1Cu3O12Ti4,0.825312,2.567754,1.679573,3.011795
Cd1F2,2.971267,5.061095,11.432969,13.484121
Cd1F3K1,3.067405,5.053308,7.845697,9.872497
Cd1F5Mn1,1.619958,3.142891,2.159885,3.682
Cd1F6Pd1,1.865972,3.857043,1.865972,3.857043
Cd1F6Pt1,2.242561,4.197803,2.242561,4.197803
Cd1F7Tl1Zr1,5.010745,6.484299,5.855109,6.484299
Cd1Fe2O4,1.836297,3.049424,1.836297,3.049424
Cd1Ga1In1S4,0.253425,1.203293,1.278301,2.241333
Cd1Ga2O4,1.57759,3.091139,5.702002,7.432544
Cd1Ga2S4,2.091324,3.11664,3.718642,3.11664
Cd1Ga2Se4,1.330901,2.222341,1.330901,2.222341
Cd1Ga2Te4,1.03743,1.725978,1.03743,1.725978
Cd1Ge1Li2O4,2.401091,3.984117,5.284095,7.048025
Cd1Ge1Li2S4,2.242679,3.326303,2.242679,3.326303
Cd1Ge1O3,1.168286,2.736814,2.609864,4.194795
Cd1Ge1P2,0.584094,1.331124,0.584094,1.331124
Cd1Ge1Te4Tl2,0.093158,0.61247,0.452774,0.884157
Cd1Ge2Na2S6,2.170035,3.247651,2.170035,3.247651
Cd1Ge2O5,1.292085,2.998451,4.22413,6.104542
Cd1H2I3O1Rb1,2.558649,3.600067,2.558649,3.600067
Cd1H2O2,1.69741,3.366307,6.578139,8.57591
Cd1H2O5Se1,2.475874,4.348265,2.475874,4.348265
Cd1H4K2O10Se2,2.978206,4.849168,4.287804,6.319102
Cd1H4Mg1N4O10,2.571988,4.496462,2.719013,4.496462
Cd1H4Na2O10Se2,2.905472,4.764146,4.149573,6.148047
Cd1Hg1O2,0.63649,1.7925,4.122695,5.900186
Cd1Hg2O6S1,1.307829,3.075651,2.616661,4.423162
Cd1Hg2O6Se1,0.920192,2.620423,2.30463,4.06226
Cd1I2,2.356544,3.336233,3.307146,4.365269
Cd1I3Tl1,2.198972,3.0762810000000003,2.485165,3.402579
Cd1I4S8Sb6,1.439265,2.092617,2.032257,2.713388
Cd1I6In4,1.421708,1.978982,1.630682,2.390779
Cd1I6Tl4,2.04851,2.752584,2.04851,2.752584
Cd1In2O4,1.021339,2.448587,4.89048,6.531719
Cd1In2S4,1.01357,1.98501,3.16,4.167102
Cd1In2Se4,0.030175,0.84982,2.45208,3.308297
Cd1In2Te4,0.837015,1.4900819999999997,0.837015,1.4900819999999997
Cd1K1N3O6,2.269912,4.122818,2.392111,4.289412
Cd1K2N12,2.887168,4.103724,4.435923,5.735512
Cd1K2O2,1.331884,2.575164,3.134636,4.56919
Cd1K2S4Sn1,1.455516,2.445265,1.455516,2.445265
Cd1K2Sb2Sr1,0.290432,0.839709,1.497504,2.089547
Cd1K2Se4Sn1,1.637882,2.519223,3.219788,4.242123
Cd1K4P2,0.826254,1.402886,2.204457,2.814494
Cd1K6O4,1.533425,2.7639329999999998,3.658665,5.023295
Cd1K6Te4,1.64183,2.355397,1.64183,2.355397
Cd1Li2O4Si1,2.857846,4.489124,5.337504,7.144704
Cd1Li2S4Sn1,1.93449,2.964039,1.93449,2.964039
Cd1Lu2S4,1.119125,2.16172,1.119125,2.16172
Cd1Lu2Se4,0.6241520000000003,1.553144,0.6241520000000003,1.553144
Cd1Mn2O4,1.208777,2.523309,1.733476,3.148488
Cd1Mo1O4,2.175947,3.533356,3.373653,4.689445