material formula,Band_gap_GGA,Band_gap_HSE,Band_gap_GGA_optical,Band_gap_HSE_optical
Co2Ge3S3,0.482755,1.151615,0.595379,1.378426
Co2Ge3Se3,0.426946,1.137221,0.426946,1.165765
Co2Ge3Te3,0.464949,1.028759,0.477905,1.087399
Co2H1O5P1,2.477562,4.242916,2.477562,4.242916
Co2H3Mo2Na1O10,0.08609899999999993,0.8297839999999999,0.897794,1.923226
Co2H4O10P2Pb1,3.002189,4.755352,3.150277,4.929283
Co2K2Na4O5,1.970396,3.356991,2.547727,4.3229
Co2K4O5Rb2,1.626004,2.884149,2.484802,4.096623
Co2K6O5,1.582501,2.816905,2.484121,4.043654
Co2La2O5,0.995319,2.378818,0.995319,2.378818
Co2Na4O5Rb2,1.82426,3.112332,2.541791,4.328733
Co2Na7O6Rb1,1.355471,2.53816,1.355471,2.53816
Co2O3Rb2,1.56985,2.777153,1.56985,2.777153
Co2O4Rb5,1.270846,2.451262,1.657329,2.912802
Co2O7P2,2.6637850000000003,4.548734,2.802044,4.683623
Co2O7Sb2,0.694005,1.945716,2.744142,4.584369
Co2O8P2Sr1,2.945161,4.745265,3.053586,4.852864
Co2O8Te3,2.4797089999999997,3.6566680000000003,2.599725,3.732631
Co2Pd1Se12Ta4,0.0,0.091894,0.0,0.748528
Co2Se3Sn3,0.381889,0.919278,0.388452,1.075163
Co2Sn3Te3,0.471723,1.033563,0.490593,1.070154
Co3Cr4O24P6,1.892839,3.230614,2.24738,3.640229
Co3F6O6Sb4,2.238764,3.325246,2.862505,3.325246
Co3H16O16P2,1.347126,2.690477,1.665383,3.161726
Co3In1S2Sn1,0.178192,0.73867,1.194446,1.968962
Co3O4,0.262816,2.830857,0.262816,2.830857
Co3O8P2,2.8591379999999997,4.606033,3.100947,4.606033
Co3O8V2,1.753489,2.8684579999999995,1.897268,3.122352
Co3Rb2S4,0.691098,1.885104,0.815195,2.032163
Co3S4,0.688738,1.601645,1.239067,2.306971
Co3Se4,0.448928,1.200856,1.042315,1.882483
Co5O15Sr6,0.489182,0.970782,0.630521,1.02648
Cr11K3S18,0.58923,1.387761,1.109346,1.953867
Cr1Cs1F4,2.351343,3.954999,2.351343,3.954999
Cr1Cs1H8N2O8,1.572286,3.162046,1.641654,3.238024
Cr1Cs1I3,1.305155,2.15955,1.576686,2.438156
Cr1Cs1P2S7,1.521968,2.616896,2.132474,3.278954
Cr1Cs2F10H4,1.65759,2.999931,1.678912,3.042467
Cr1Cs3F7,0.654963,1.8120129999999999,0.682685,1.84162
Cr1Cu1O2,1.942991,3.009277,2.723347,3.882513
Cr1Cu1O3S1Sr2,1.280072,2.266872,1.959208,3.089988
Cr1Cu1O4,1.254456,2.892489,2.224643,3.257249
Cr1Cu1P2S6,1.132503,2.03388,1.190608,2.093599
Cr1Cu1S2,0.184553,0.8839240000000004,1.637936,2.397546
Cr1F2,2.226737,3.4654350000000003,2.555602,3.746192
Cr1F2O2,2.137321,3.570436,2.177667,3.609983
Cr1F3,2.530487,4.132786,2.544599,4.14379
Cr1F3K1,2.604974,3.691133,3.03108,4.268557
Cr1F3O1,1.924301,3.539539,2.033758,3.697962
Cr1F4,1.61884,3.161052,1.645334,3.173911
Cr1F4Na2,2.819782,3.821802,2.819782,3.821802
Cr1F5,1.4087390000000002,2.865657,1.429937,2.87373
Cr1F5Mn1,2.059232,3.1114490000000004,3.041164,4.204172
Cr1F5Rb1,1.490019,2.913994,1.581883,2.999312
Cr1F6K1,1.3213810000000001,2.6266719999999997,1.338614,2.640717
Cr1F6Li2,1.387803,2.726948,1.44514,2.78438
Cr1F6Mg1,1.416396,2.776307,3.426529,4.522669
Cr1F6Mo1,0.6399029999999999,2.1519519999999996,0.802397,2.353235
Cr1F6Na1,1.289434,2.626493,1.406686,2.752572
Cr1F6Rb1,1.313762,2.615988,1.344999,2.643315
Cr1F6Xe1,1.606111,3.119165,1.606111,3.158487
Cr1F8H2K2,1.815211,3.175385,1.846636,3.175385
Cr1F8H2Na2,1.715218,3.083672,1.715218,3.083672
Cr1Fe1O3,1.828414,2.824085,2.004269,3.031955
Cr1Fe1P1,0.220238,0.513764,0.49241,1.146045
Cr1Ga1Se3,0.861846,1.683081,1.44542,2.236155
Cr1Ge2Li1O6,2.489114,4.089615,2.696623,4.313477
Cr1Ge2Na1O6,2.393445,3.966187,2.903242,4.48174
Cr1H10N4O8S2,2.726147,3.925513,4.601212,5.565858
Cr1H18I7N6,1.634942,2.543352,1.768045,2.843705
Cr1H1La1O5,2.52985,3.648772,2.736832,3.893419
Cr1H1O2,2.105826,3.58508,3.042699,4.624931
Cr1H6O6Rb3,3.2118830000000003,4.682243,3.608364,5.214784
Cr1H8N2O4,2.96231,4.15387,3.207903,4.368375
Cr1Hg1O4,1.352993,2.477664,1.352993,2.477664
Cr1Hg1O6Pb2,1.922074,2.471035,1.922074,2.471035
Cr1Hg3O4S2,1.639376,2.920148,2.302125,3.279338
Cr1Hg5O5S2,1.811427,2.628492,2.264998,3.070874
Cr1Hg5O6,0.709428,1.676935,2.231057,3.066024
Cr1I1K1O6,2.658821,3.936516,2.813115,4.100337
Cr1I2,1.573114,2.543412,1.998112,2.948954
Cr1I3,0.968708,1.752936,1.062472,1.868531
Cr1I3Rb1,1.345126,2.196047,1.539704,2.395147
Cr1I6Tl4,1.047201,1.865488,1.472003,2.3105
Cr1In1O3,1.672535,2.92115,3.058633,4.513907
Cr1K1O2,2.824045,4.279498,3.596387,5.242016
Cr1K1O7V2,2.110402,3.098322,2.211976,3.168204
Cr1K1P2S7,1.511881,2.605309,2.111786,3.248406
Cr1K1S2,1.249992,2.153068,2.244155,3.16221
Cr1K3Mn1O8,0.843122,1.790264,0.881856,1.831705
Cr1K3O4,1.075998,1.865924,2.208621,3.520266
Cr1K3O8,1.745888,3.474641,1.745888,3.474641
Cr1La1O1S2,1.1000439999999996,1.9356210000000003,1.684281,2.597324
Cr1La1O3,2.595638,3.659907,3.116512,4.843847
Cr1La1O4,0.963702,1.879015,1.111817,1.879015
Cr1La1O6Te1,2.707973,3.438317,3.109878,3.762679
Cr1La1S3,0.332708,0.927787,0.332708,0.927787
Cr1La1Se3,0.020586,0.505065,0.020586,0.505065
Cr1La2O6,1.996828,2.984161,2.111649,3.09941
Cr1La3O6S3W1,1.478373,2.348959,1.574097,2.530614
Cr1Li1Mo2O8,2.363708,3.667825,2.714907,3.667825
Cr1Li1O4Rb1,2.964371,4.10367,3.114525,4.270955
Cr1Li1O7P2,2.483236,4.150241,2.713251,4.382533
Cr1Li1O8W2,2.023192,3.341587,2.26636,3.673816
Cr1Li1S2,1.042317,1.942387,2.247359,3.143264
Cr1Lu1O4,0.15747299999999997,1.204805,1.080178,2.269219
Cr1Mg1O4,2.366395,3.511997,2.366395,3.511997
Cr1Mn1O4,0.685288,1.765869,1.130223,2.168639
Cr1Mn1O6Y2,0.73542,1.986472,1.200941,2.57556
Cr1Mn2O9Pb2,1.1766199999999998,2.291386,1.400574,2.538121
Cr1Mo1O7V1,2.300566,3.481383,2.58585,3.785876
Cr1Na1O2,3.055296,4.493022,3.820381,5.174716
Cr1Na1O6Si2,2.68463,4.327951,3.164693,4.815335
Cr1Na1S2,1.126976,2.0322009999999997,2.287721,3.198293
Cr1Na1Se2,0.407413,1.1389490000000002,1.812014,2.564041
Cr1Na4O4,1.996882,3.264679,2.363561,3.664341
Cr1Ni1O4,2.245148,2.980814,2.518771,3.363936
Cr1O2,0.0,0.759888,0.0,0.759888
Cr1O3,2.267616,3.47649,2.529956,3.800544
Cr1O3Sc1,1.052412,3.963926,1.052412,3.963926
Cr1O3Y1,2.547655,4.021428,2.547655,4.021428
Cr1O4P1,2.331536,3.979219,2.472124,4.118516
Cr1O4Pb1,2.549497,3.075594,2.751118,3.314286
Cr1O4Sr1,2.846846,3.969478,2.895376,4.013181
Cr1O4Sr2,1.821009,3.235485,1.821149,3.235611
Cr1O4Tl2,2.285619,3.069774,2.485687,3.311252
Cr1O4V1,1.726694,2.917102,2.437267,3.620067
Cr1O4W1,0.625809,1.665089,1.131134,2.174494
Cr1O4Y1,0.907494,2.048312,2.137663,3.408743
Cr1O6Sb1Sr2,1.439799,2.749091,2.897314,4.431408
Cr1O6Sr2Ta1,2.724384,3.796337,2.994886,4.064169
Cr1O6Ta2,0.34111599999999953,0.8509710000000004,0.944922,1.40209
Cr1O6Te1Y1,2.656566,4.05893,3.014346,4.377405
Cr1O7Rb1V2,2.107948,3.095476,2.221747,3.180699
Cr1P1S4,0.8935790000000003,1.9092089999999997,1.631797,2.575179
Cr1P1Se3,1.105565,1.9551600000000002,1.574697,2.39398
Cr1Rh2Se4,0.0,0.2538980000000004,0.0,0.2538980000000004
Cr1S1,1.059024,1.922324,2.380061,3.425018
Cr1S3Sb1,0.870007,1.554822,1.274752,1.992515
Cr1S4V2,0.05464599999999997,0.6304729999999994,0.38344,0.970476
Cr1Sb1Se3,0.521268,1.142767,0.674895,1.270056
Cr1Si1Te3,0.228931,0.761748,0.634049,1.305111
Cr1Si2,0.385201,1.341492,0.917117,1.695123
Cr2Cs3I9,0.859604,1.7549890000000001,0.866,1.762845
Cr2Cu1O4,0.418553,2.038499,0.906805,2.497918
Cr2Cu5O18P4,0.119744,1.958184,1.18891,3.284267
Cr2F5,1.250287,2.112799,2.108236,3.108688
Cr2Fe1K1O8,1.65425,2.668225,2.198002,3.384029
Cr2Fe1O4,1.550126,2.203028,1.550126,2.203028
Cr2Fe1S4,0.626744,1.4527280000000005,1.358894,2.264516
Cr2Fe1Se4,0.0,0.510062,0.0,1.733971
Cr2H2Hg2O9,2.250649,3.475154,2.450742,3.475154
Cr2H4In1Na1O10,2.682221,3.8558079999999997,3.001098,4.139454
Cr2H4K2Mg1O10,2.916392,4.175217,3.040607,4.288312
Cr2H4K2O10Zn1,2.838773,3.949803,3.020733,4.131985
Cr2H4Li2O9,2.607857,3.831166,2.73812,3.984125
Cr2H8N2O7,2.726583,3.978655,2.810709,4.067309
Cr2Hg1O4,1.232306,2.496676,2.672152,3.999429
Cr2Hg1O7,1.943145,3.102705,2.255374,3.431286
Cr2Hg6O10,1.511973,2.30601,1.511973,2.30601
Cr2Hg6O9,1.829472,2.638846,1.986956,2.757947
Cr2I1O4P1,1.717366,2.739567,1.97496,3.014901
Cr2K2O7,2.706146,3.965139,2.732098,3.9809
Cr2K3Na1O8,3.046173,4.192764,3.046173,4.286991
Cr2Li14N8O1,2.43039,3.341061,2.43039,3.341061
Cr2Li2N8O1Sr6,1.830475,2.642755,1.87999,2.735722
Cr2Mg1O4,2.643869,4.105304,2.643869,4.105304
Cr2Mn1O4,2.524621,3.835415,2.524621,4.403293
Cr2Mn1S4,0.537412,1.296421,0.537412,1.296421
Cr2Mo3O12,1.246849,3.733653,1.246849,3.733653
Cr2Na2O7,2.619404,3.911401,2.744055,4.030298
Cr2Ni1O4,2.355906,3.254948,2.579747,3.575427
Cr2Ni1S4,0.964251,1.8657629999999994,1.554409,2.234154
Cr2O11Te4,2.169719,3.338327,2.169719,3.338327
Cr2O12S3,2.66919,4.371017,2.683566,4.371017
Cr2O3,2.747022,4.172056,3.203704,4.674218
Cr2O4Si1,1.956371,2.949342,2.121146,3.169634
Cr2O4Zn1,2.563282,4.012216,2.563282,4.012216
Cr2O6Re1,0.124807,1.2779,0.625854,1.784389
Cr2O6W1,1.535134,2.773644,2.355565,3.577801
Cr2O7Rb2,2.738816,4.028055,2.738816,4.028055
Cr2O7Sr1,2.463819,3.621285,2.542259,3.684631
Cr2O7Tl2,1.701531,2.381171,1.878766,2.594939
Cr2S3,0.18622,1.092546,0.842482,1.092546
Cr2S4Zn1,1.0463700000000005,1.756256,2.173982,1.756256
Cr2Se4Zn1,0.279942,1.0074650000000003,1.625655,2.368936
Cr3Cs2O10,2.078098,3.292618,2.078098,3.292618
Cr3H6K1O14S2,2.28671,3.868327,2.28671,3.868327
Cr3K1S5,1.1101739999999998,1.9108060000000004,1.571098,2.39553
Cr3Li1O8,0.372789,2.278084,0.60774,2.659376
Cr3Na1O8,1.673695,2.790114,1.673695,2.790114
Cr3O10Rb2,2.045863,3.269191,2.067038,3.294996
Cr3O12Tl2,1.502275,2.619153,1.502275,2.619153
Cr3O8P2,2.113904,3.280409,2.224612,3.280409
Cr3O8Rb1,1.689556,2.707985,1.931545,2.966912
Cr3O8Tl1,1.651755,2.630264,2.010302,3.067697
Cr3Rb1S5,1.129728,1.90745,1.519123,2.445619
Cr3S4,0.787185,1.436466,1.361674,2.017501
Cr3Se5Tl1,0.41685,1.072689,0.920583,1.626768
Cr4Cs2Cu1H4O16,1.615132,3.352568,2.584246,3.731124
Cr4Cu1Fe1S8,0.152671,0.771585,0.572185,1.011481
Cr4Cu1H4O16Rb2,1.597926,3.32283,2.552423,3.706875
Cr4Cu1In1Se8,0.076257,0.558187,0.076257,0.558187
Cr4Cu3La1O12,0.74485,1.824506,0.74485,1.824506
Cr4Cu3O12Y1,0.197768,1.533022,0.236044,1.544132
Cr4Cu3O24P6,0.816155,2.956832,0.982889,2.997921
Cr4H4K2O16Zn1,2.637654,3.829295,2.749551,3.925019
Cr4K2O13,1.863657,3.064545,1.996339,3.231223
Cr5In1Se8,0.014434,0.573924,0.794945,1.361167
Cr5K1S8,0.599027,1.394689,1.14089,1.940277
Cr5Rb1S8,0.598842,1.397603,1.163975,1.970312
Cr5Rb1Se8,0.416249,1.132953,0.631864,1.416475
Cr5S8Tl1,0.598345,1.331359,1.212109,2.043577
Cr5Se8Tl1,0.020792,1.028951,0.54372,1.599154
Cr6O28P8,1.295184,2.064349,1.41904,2.182769
Cr7O24P6,0.696579,1.472538,0.948828,1.753401
Cs0.33Mo1O3,0.791584,1.22078,0.842654,1.349086
Cs10O3Sn1Tl6,0.118353,0.343285,0.27621,0.5021
Cs1Cu1F4,1.720432,3.837287,1.880292,4.000521
Cs1Cu1La2Se4,1.25264,1.894127,1.336762,1.990855
Cs1Cu1O1,1.506855,2.358994,1.790759,2.517283
Cs1Cu1O2,1.236595,2.863171,2.300591,4.039184
Cs1Cu1S4,1.886319,2.888506,2.047402,3.044278
Cs1Cu1S6,1.31669,2.170747,1.738274,2.687304
Cs1Cu1Se3Zr1,0.448487,1.120573,0.448487,1.120573
Cs1Cu1Se4,1.148556,1.907919,1.192871,1.972442
Cs1Cu2F5,2.260202,4.439746,2.372526,4.551343
Cs1Cu2I3,2.438205,3.275442,2.438205,3.275442
Cs1Cu2Nb1Te4,1.073593,1.700468,1.193183,1.815996
Cs1Cu2Sc3Te6,0.157937,0.819708,0.675362,1.416427
Cs1Cu2Ta1Te4,1.312084,1.921768,1.411808,2.022263
Cs1Cu3Lu2Se5,1.436592,2.226293,1.655649,2.488585
Cs1Cu3O2,1.768117,2.975278,2.892634,3.209728
Cs1Cu3S2,2.1992849999999997,2.7977920000000003,3.313375,3.997059
Cs1Cu3Se4Ti1,1.438725,2.240786,1.764729,2.548399
Cs1Cu5S3,0.629963,1.275904,1.394362,2.068914
Cs1D1O1,3.621372,5.168899,3.621372,5.168899
Cs1D3Mg1,2.687604,3.719154,4.034579,5.095555
Cs1F1,5.286518,7.076575,7.54749,9.478893
Cs1F2O2P1,5.220706,7.039878,6.651183,8.554315
Cs1F3Hg1,0.652684,2.406669,6.3063,7.988613
Cs1F3Mo1O2,3.117657,4.635314,3.350882,4.864612
Cs1F3Pb1,2.938655,4.005093,2.938655,4.005093
Cs1F3Sr1,6.200348,8.198585,8.403297,10.446278
Cs1F3Tl1,2.100249,3.185747,4.957272,6.019766
Cs1F4H4Mn1O2,2.049167,3.613689,2.049167,3.613689
Cs1F4Mn1,1.966506,3.374363,2.3432,3.768059
Cs1F4O10P3Ti2,2.585665,4.115702,2.666225,4.206428
Cs1F5K2Pd1,2.282579,4.503659,2.292112,4.503659
Cs1F5N1O1Os1,1.047977,3.252179,1.10082,3.306289
Cs1F5Ni1Pd1,0.732977,2.937924,1.097563,3.271123
Cs1F5Pd1Rb2,2.310158,4.512686,2.318257,4.604989
Cs1F5Pd2,0.274502,2.421816,0.3175,2.421816
Cs1F6Fe2,1.147554,1.329327,1.17673,1.355098
Cs1F6O18S6Sb1,2.631889,4.196756,6.263278,8.217053
Cs1F6Ru1,1.187596,3.723032,1.187596,3.788517
Cs1Fe1I4,0.9550260000000002,2.001236,1.090542,2.032307
Cs1Fe1Mo2O8,2.2371119999999998,3.551906,2.276809,3.586939
Cs1Fe1O2,3.432731,4.999271,3.630987,4.999271
Cs1Fe1O8S2,2.15189,3.486345,2.301574,3.688124
Cs1Ga1S3,2.446698,3.606102,2.725809,3.922295
Cs1Ga1Se3,1.633776,2.649137,2.013397,3.037137
Cs1Ga1Te2,1.28607,2.0315570000000003,1.28607,2.0315570000000003
Cs1Ga3,0.034127999999999936,0.31812799999999974,0.768938,1.108664
Cs1Ga3S5,2.653091,3.797142,3.21873,4.358435
Cs1Ge1I3,0.9339770000000001,1.340255,0.9339770000000001,1.340255
Cs1Ge1S5Ta1,0.963119,1.649701,2.066854,2.833523
Cs1Ge2Na1,0.938053,1.458069,1.306571,1.776669
Cs1H1,2.226093,3.149353,2.226093,3.149353
Cs1H1O10P3V1,1.987707,3.062715,2.21831,3.062715
Cs1H1O2S1,3.980562,5.37586,5.311143,6.753033
Cs1H1O7S2,5.426304,7.331619,5.426304,7.331619
Cs1H2N1O3S1,5.237095,6.96428,6.382844,8.124599
Cs1H2O4P1,5.262213,6.996327,7.055628,8.776991
Cs1H3N1P2,1.9865119999999998,2.541456,1.9865119999999998,2.541456
Cs1H4Li1N2,2.254678,3.696728,3.845584,5.296792
Cs1H4O5Sb1,3.310798,5.097507,4.948053,6.919219
Cs1H5N2,2.172729,3.403021,2.172729,3.403021
Cs1H6Li2N3,0.534979,1.590019,0.929195,2.058231
Cs1Hg1La1Se3,1.43465,2.284762,1.43465,2.284762
Cs1Hg1Se3Y1,1.393533,2.271762,1.393533,2.271762
Cs1I1,3.871615,4.83487,3.871615,4.83487
Cs1I1Mo1O6,2.27715,3.372328,2.27715,3.372328
Cs1I1O4,2.510582,4.363029,3.039503,4.9684
Cs1I3,1.852982,2.713494,1.96889,2.850754
Cs1I3Mn1,3.051285,3.948685,3.051285,4.439615
Cs1I3O13V2,1.808495,2.5390099999999998,1.886185,2.609164
Cs1I3Pb1,1.444688,1.94832,1.444688,1.94832
Cs1I3Sn1,0.423813,0.76336,0.423813,0.76336
Cs1I3V1,2.787602,3.62066,2.89563,3.742756
Cs1I4In1,2.047913,3.017226,2.240637,3.2233
Cs1I4Tl1,0.979138,1.7740509999999998,1.180649,1.98052
Cs1I6Ta1,1.0338579999999997,1.7158639999999998,1.139167,1.796506
Cs1In1S2,2.178535,3.191308,2.785012,3.191308
Cs1In1Se2,1.610933,2.522587,2.24266,3.175748
Cs1In1Te2,1.341101,2.082983,1.341101,2.082983
Cs1In3O5,1.434495,2.787691,4.673096,6.312399
Cs1In5S8,1.299592,2.151942,2.971373,3.956255
Cs1K2Sb1,0.831579,1.430175,0.831579,1.430175
Cs1K5S17Sn5Zn4,1.593989,2.650871,2.104258,3.221857
Cs1La1Nb2O7,1.413561,2.781219,3.857989,5.689976
Cs1La1S2,2.4920220000000004,3.365069,3.702636,4.733511
Cs1La1Te3Zn1,1.662541,2.314133,1.662541,2.314133
Cs1Lu1O8W2,3.236407,4.638396999999999,3.421247,4.841728
Cs1Lu1S2,2.142691,3.113149,3.358145,4.355435
Cs1Mn1O12P4,1.655307,3.141378,1.67339,3.141378
Cs1Mn1O4,2.347574,3.361577,2.477059,3.478222
Cs1Mo1N3O11,2.469064,4.152655,2.582864,4.25327
Cs1Mo1O6P1,2.445802,3.8858420000000002,2.540388,3.999853
Cs1Mo2O13P3,0.755061,2.81187,1.000621,3.080216
Cs1N2Nb1,1.538697,2.372353,2.038919,2.89074
Cs1N3,4.112216,5.318157,5.131138,6.517118
Cs1Na1S1,2.52751,3.488778,3.749942,4.726249
Cs1Na1Se1,2.106062,3.004145,3.474004,4.379867
Cs1Na1Te1,1.999917,2.745124,3.289958,4.096827
Cs1Na3O4Pb1,1.472702,2.845243,1.472702,2.845243
Cs1Nb1O8P2,2.546822,3.790645,3.101988,4.352425
Cs1O10Sr2Ta3,1.979686,3.260711,5.56379,7.143801
Cs1O12Se2Ta3,2.528614,3.919662,2.528614,3.919662
Cs1O12Se2V3,2.326053,3.485362,2.445173,3.591654
Cs1O12Te2V3,2.434784,3.570379,2.522089,3.675008
Cs1O19P5Ti3,2.662792,4.184176,2.833176,4.329923
Cs1O2P1S1,4.068417,5.352587,4.068417,5.352587
Cs1O2Sb1,2.408935,3.399524,3.450509,4.519337
Cs1O2Y1,2.852973,4.204511,3.894131,5.272924
Cs1O3,0.0,0.042338,0.0,0.397955
Cs1O5P1V1,2.841906,4.15628,2.947512,4.262937
Cs1O6Te2,0.667027,1.426145,0.667027,1.426145
Cs1O8P2Sb1,2.994048,4.74049,6.34217,4.846055
Cs1O8S2V1,2.089959,3.222018,3.437996,4.62104
Cs1O8Sb1V2,2.653998,4.010596,2.922866,4.424665
Cs1O8V3,2.072332,3.022681,2.469087,3.461557
Cs1P1Pb1S4,2.43815,3.293629,3.063049,3.940207
Cs1P1Pb1Se4,1.613805,2.466024,1.613805,3.231957
Cs1P1S3,1.912806,2.98374,2.841943,3.959257
Cs1P1S4Sn1,1.971501,2.703338,2.163642,2.885914
Cs1P3Zn4,0.337595,0.795743,0.337595,0.795743
Cs1P7,1.234151,1.960299,1.234151,1.960299
Cs1Pt2Se3,1.039554,1.67051,1.039554,1.67051
Cs1S2Sb1,1.760111,2.571106,2.448839,3.317792
Cs1S3Sn1,1.656552,2.660702,2.401307,3.45306
Cs1S4Sb2,1.1809720000000001,1.8785860000000003,2.052121,2.855411
Cs1S6Sb1,0.880338,1.299022,0.890141,1.301027
Cs1Sb1,0.541416,1.045362,0.541416,1.045362
Cs1Sb1Se2,1.180355,1.882998,1.862205,2.625232
Cs1Sb2Se4,0.9793449999999999,1.5627749999999998,1.736687,2.38809
Cs1Se3Sn1,1.064286,1.897916,1.762639,2.623977
Cs1Se3Te1,0.528577,1.0749819999999999,0.914439,1.452844
Cs1Se3Y1Zn1,2.235574,3.102255,2.674628,3.600063
Cs1Si1Te3,1.14289,1.7693329999999996,1.14289,1.7693329999999996
Cs1Te3Y1Zn1,1.462588,2.173147,1.462588,2.173147
Cs1Te4,0.440415,0.833891,0.637086,1.04509
Cs1Tl1,0.193649,0.415634,0.561875,0.837113
Cs2Cu1F6K1,1.76346,3.844207,1.955785,4.041774
Cs2Cu1Nb1Se4,1.751116,2.581064,2.142225,2.920907
Cs2Cu1O7P2,1.716773,3.813666,1.908077,4.006051
Cs2Cu2S5Sb2,1.419028,2.13655,1.783204,2.502092
Cs2Cu2Sb2Se5,1.062116,1.677768,1.474337,2.095394
Cs2Cu2Se4Ti1,1.591699,2.317761,1.873561,2.804217
Cs2Cu3F12Ti1,1.84895,4.177718,1.8548,4.181205
Cs2Cu3F12Zr1,1.907476,4.157611,2.40326,4.737616
Cs2D4Mg1,2.953018,3.924863,3.94545,4.953612
Cs2D4Pd1,2.95665,4.177549,2.95665,4.177549
Cs2F4Hg1,2.066566,3.79697,6.011063,7.719592
Cs2F6Fe1Tl1,2.432449,3.605393,2.432449,3.605393
Cs2F6K1Mn1,1.575025,3.139372,4.430412,5.328483
Cs2F6Nb1,0.235451,2.275046,0.27006,2.317335
Cs2F6O18Pt1S6,2.323397,3.610095,2.337374,3.654391
Cs2F6Pd1,2.343179,4.367258,2.560469,4.605619
Cs2F6Pt1,2.818408,4.77586,3.075819,5.060509
Cs2F6Tc1,1.868594,4.4452370000000005,1.9491,4.524851
Cs2Fe1O4,1.7118220000000002,3.3122049999999996,1.812339,3.421676
Cs2Fe2K4O5,1.437872,2.635836,2.052007,2.635836
Cs2Ga1Sb2,1.076413,1.6059929999999998,1.406584,1.980941
Cs2Ge1S4,2.271465,3.321253,2.628788,3.744969
Cs2Ge1Se3,1.603524,2.538338,1.826009,2.804912
Cs2Ge1Se4,1.583008,2.491387,1.856689,2.760023
Cs2Ge1Te4,0.48424,0.9403450000000002,0.761613,1.286488
Cs2Ge2S5,2.359826,3.47122,2.627009,3.722602
Cs2Ge2Se5,1.568522,2.497337,1.860736,2.774614
Cs2Ge3O9Sn1,2.503902,4.194183,4.117435,5.963924
Cs2Ge3O9Ti1,2.776094,4.441362,3.005475,4.653836
Cs2H12N6Sn1,2.61804,3.910212,2.61804,3.910212
Cs2H12O16Te3,1.659109,2.7026380000000003,3.158493,4.502503
Cs2H2Hg3I8O1,1.596683,2.507829,1.596683,2.507829
Cs2H6O10S1Te1,2.4367780000000003,4.041413,2.4367780000000003,4.041413
Cs2H6O12Sn1,2.527767,4.356935,3.880858,6.194755
Cs2Hf1I6,2.157573,3.089765,2.200048,3.123516
Cs2Hf1Mo3O12,3.484999,4.898011,3.806354,5.237477
Cs2Hg1I4,1.966683,2.880564,1.966683,2.880564
Cs2Hg1O2,2.112441,3.469507,3.028676,4.254014
Cs2Hg3I8,1.714347,2.634427,1.714347,2.634427
Cs2Hg3S4,1.7151469999999998,2.7165150000000002,2.711513,2.7165150000000002
Cs2Hg3S8Sn2,1.577134,2.524218,2.207184,3.180682
Cs2Hg3Se4,1.166847,2.039717,1.166847,2.039717
Cs2Hg6S7,0.631299,1.413657,1.64249,1.413657
Cs2I4O11,2.891698,4.035335,3.258984,4.444191
Cs2I6O18Zr1,3.319815,4.583183,3.904538,5.271734
Cs2I6Pd1,0.082859,0.718782,1.137044,1.885824
Cs2I6Pt1,0.647339,1.393021,1.667532,2.508374
Cs2I6Sn1,0.200787,0.936289,0.200787,0.936289
Cs2I6Te1,1.36219,2.131113,1.974766,3.241839
Cs2I8,1.752856,2.560606,1.806361,2.621123
Cs2In1Na3O4,2.066152,3.444185,3.195681,4.646801
Cs2In3,0.010232,0.154795,0.374462,0.626508
Cs2Ir1Na2O4,0.239851,2.14307,0.239851,2.14307
Cs2K2O5Te1,2.021483,3.584548,2.582744,4.187629
Cs2Li1Mn1O4,1.792561,3.298854,2.072946,3.622597
Cs2Li1Nb1S4,2.458689,3.393252,2.62565,3.581441
Cs2Li1S4V1,1.870961,2.644415,1.870961,2.644415
Cs2Mn1O4,0.594004,1.980298,0.594004,1.980298
Cs2Mn1P2Se6,1.691968,2.54842,1.941066,2.710622
Cs2Mn1S2,2.728973,3.616848,3.484875,4.364
Cs2Mn1S6Te2,1.8458,2.612198,2.047422,2.86347
Cs2Mn3Se4,1.7673120000000002,2.484739,1.7673120000000002,2.484739
Cs2Mn3Te4,1.422588,2.035392,1.422588,2.035392
Cs2Mo1O1S3,1.888468,2.677042,1.888468,2.677042
Cs2Mo1O2S2,2.125665,2.99737,2.125665,2.99737
Cs2Mo1S4,1.701038,2.474312,1.701038,2.474312
Cs2Mo1Se4,1.146584,1.769983,1.146584,1.769983