material formula,Band_gap_GGA,Band_gap_HSE,Band_gap_GGA_optical,Band_gap_HSE_optical
Cd1Mo1O6P1,1.557849,2.759425,1.678124,2.897847
Cd1N3O6Rb1,2.314142,4.164554,2.451298,4.351014
Cd1N3O6Tl1,2.102921,3.898748,2.160537,3.970945
Cd1Na1O4P1,2.998348,4.727176,2.998348,4.727176
Cd1Na1S3Sb1,1.019836,1.73527,1.33891,1.920578
Cd1Na1Sb1,0.0,0.5291220000000001,0.0,0.5291220000000001
Cd1Na2S4Sn1,1.923932,2.936274,1.923932,2.936274
Cd1Na4P2,0.757078,1.401404,2.25121,2.97154
Cd1O1,0.0,0.763775,0.0,5.850436
Cd1O10P2V2,1.562854,2.634345,2.025435,3.180564
Cd1O10Pb6Te1,1.947558,2.930723,2.483741,3.514736
Cd1O14P4V2,1.7609190000000003,2.5300200000000004,1.7609190000000003,2.5300200000000004
Cd1O2,1.388117,3.17407,2.966561,5.198715
Cd1O2Rb2,1.359512,2.610375,3.003321,4.385803
Cd1O3Sn1,0.957308,2.502783,5.532771,7.370058
Cd1O3Tc1,0.67438,2.557118,1.081336,3.014847
Cd1O3Ti1,2.881995,4.408143,3.659048,5.256907
Cd1O3V1,1.4013,2.580694,1.607714,3.083355
Cd1O4Pd3,0.0,0.306686,0.0,0.306686
Cd1O4Rh2,0.968891,2.750215,1.024942,2.763641
Cd1O4S1,1.5891359999999999,3.4023190000000003,4.901799,6.906158
Cd1O4W1,2.89951,4.236298,3.676992,5.022299
Cd1O5Se2,2.882766,4.311693,3.533902,4.873321
Cd1O6Pt1Sr3,2.038567,3.633943,2.551858,4.135264
Cd1O6Pt3,0.234348,1.049499,0.597711,1.049499
Cd1O6Sb2,1.386157,3.112633,4.430626,6.331983
Cd1O6Sr2W1,2.907884,4.223892,3.178489,4.523415
Cd1O6V2,2.241491,3.177714,2.355943,3.292043
Cd1P1S3,1.747628,2.842682,2.875308,4.048673
Cd1P1Se3,1.047355,2.015627,2.217424,3.172716
Cd1P2,1.469212,2.167934,1.986604,2.750416
Cd1P2Rb2Se6,1.750215,2.669572,2.03344,2.975958
Cd1P2Si1,1.36233,1.9924570000000004,1.36233,1.9924570000000004
Cd1P2Sn1,0.233836,0.900572,0.233836,0.900572
Cd1P4,0.407743,0.991545,0.719841,1.294889
Cd1S1,0.245634,1.219676,5.922066,6.60144
Cd1S2,1.168057,2.218719,2.004459,3.147909
Cd1S4Sc2,0.943632,1.988111,0.943632,1.988111
Cd1S4Y2,1.1217720000000002,2.126354,1.1217720000000002,2.126354
Cd1Sb1,0.0,0.515836,0.0,0.736102
Cd1Sc2Se4,0.466457,1.400408,0.466457,1.400408
Cd1Se1,0.0,0.351258,0.0,6.103308
Cd1Se2,0.572337,1.44726,1.332594,2.284157
Cd1Se4Y2,0.616294,1.515194,0.616294,1.515194
Cd1Sn1Te4Tl2,0.115481,0.6136,0.491826,0.927164
Cd1Te1,0.844649,1.632519,0.844649,1.632519
Cd1Te4Tl2,0.0,0.451262,0.0,0.451262
Cd2Cl1H3O3,2.063927,3.678122,2.063927,3.678122
Cd2Cl1P3,1.128722,1.8790300000000002,2.255002,3.075047
Cd2Cl2P1,1.397371,2.228082,2.325559,3.263738
Cd2Cu1O8P2,1.681663,3.710696,4.63975,6.385571
Cd2F1O4P1,2.350034,4.096468,4.322303,6.122168
Cd2F1Sb5Sr5,0.0,0.05226,0.0,0.993071
Cd2Ge1O4,1.004875,2.547799,1.004875,2.547799
Cd2H2O6S1,2.623564,4.410453,4.643098,6.461116
Cd2H4O4,1.668376,3.307414,4.23187,5.940328
Cd2I1P3,1.05979,1.788951,2.154172,2.955045
Cd2I7Tl3,1.784234,2.663258,2.380386,3.284944
Cd2K11Sb5,0.614837,1.182328,1.39721,1.950831
Cd2K1Sb3Sr2,0.16959,0.684164,0.16959,0.684164
Cd2K2O3,0.665825,1.851237,0.665825,1.851237
Cd2Mn3O8,1.023027,2.491574,1.452921,3.018514
Cd2Na14O9,1.47226,2.837956,1.47226,2.837956
Cd2Na4O10Si3,2.80385,4.392312,3.544332,4.392312
Cd2Nb2O7,1.946243,3.404111,3.250734,4.44894
Cd2O4Si1,1.454306,2.998266,4.707028,6.433807
Cd2O4Sn1,0.385322,1.771079,5.29036,7.104323
Cd2O7P2,2.715196,4.488681,4.765632,6.690075
Cd2O7Ru2,0.0,0.028872,0.0,0.235855
Cd2O7Sb2,0.371192,1.684874,4.012352,5.613
Cd2O7Ta2,2.020169,3.530034,4.06556,5.343366
Cd2O7Te2,1.698002,3.090067,2.333323,3.778505
Cd2O7V2,2.526466,3.6084259999999997,3.144164,4.252303
Cd2O9Te3,2.100856,3.222064,2.466952,3.645789
Cd2P2Sr1,0.70457,1.445073,0.70457,1.445073
Cd2Sb2Sr1,0.0,0.5112220000000001,0.0,1.153466
Cd3Cl2O2,1.164174,2.53366,4.105638,5.597363
Cd3Cl3P1,1.819948,2.785976,3.472579,4.942221
Cd3Cs2K2O5,1.256404,2.484803,1.256404,2.484803
Cd3Cs2Te4,1.550506,2.288363,1.550506,2.288363
Cd3K2S4,1.77982,2.76983,1.77982,2.76983
Cd3K2Se4,1.379217,2.2727,1.379217,2.2727
Cd3K2Te4,1.461383,2.1903140000000003,1.461383,2.1903140000000003
Cd3Na2O10Si3,2.476459,4.120311,4.100972,5.796081
Cd3O5Si1,0.962026,2.365732,0.962026,2.365732
Cd3O6Te1,0.498645,1.99341,0.498645,1.99341
Cd3P2,0.064657,0.748484,0.064657,0.748484
Cd3Rb2S4,1.76803,2.7546559999999998,1.76803,2.7546559999999998
Cd3Rb2Se4,1.381861,2.2749379999999997,1.381861,2.2749379999999997
Cd3Sb3Tl2,0.0,0.382333,0.0,0.93615
Cd4F6O1,1.87754,3.562276,4.027481,5.752343
Cd4Ge1S6,1.321152,2.362117,1.321152,2.362117
Cd4Ge1Se6,0.707323,1.582547,0.707323,1.582547
Cd4K1O12V3,2.338884,3.732149,2.799073,4.071149
Cd4K1P3,0.0,0.572788,0.0,0.572788
Cd4K6Se13Sn3,1.072491,1.930042,2.082751,2.997665
Cd4N12P6S1,3.01851,4.386392,4.547054,6.046572
Cd4S6Si1,1.4178819999999999,2.490296,1.4178819999999999,2.490296
Cd4Se6Si1,0.780584,1.6957740000000001,0.780584,1.6957740000000001
Cd6Sb12Sr11,0.3010500000000005,0.8477929999999998,0.3010500000000005,0.987393
Cd7P10,1.014796,1.733427,1.181297,1.861961
Ce1Cl6Cs2,2.0884530000000003,3.162277,2.166434,3.205597
Ce1Cl6Cs2Na1,3.9590609999999997,4.724906,3.994148,4.769129
Ce1Cs1Cu1S3,1.1879239999999998,1.8962489999999996,1.405522,2.120543
Ce1Cs1S2,2.2752830000000004,2.7879269999999994,3.58789,4.221447
Ce1F7Rb3,2.040668,2.651607,4.124327,4.823116
Ce1Ge4Mn2O12,1.082056,1.788357,1.082056,1.788357
Ce1K1O12P4,3.957539,4.747029,3.969397,4.747029
Ce1K1Se4,0.619668,1.476477,1.853323,2.781542
Ce1K2O8P2,1.779393,2.9846500000000002,1.817228,3.022686
Ce1K3O8P2,3.927397,4.715808,3.955912,4.759236
Ce1Li2N2,1.669786,2.694266,1.846857,2.939753
Ce1Li8O6,3.133043,4.453051,3.133043,4.453051
Ce1Lu1S3,0.6524320000000001,1.3978070000000002,2.119719,3.068586
Ce1N2Sr1,1.088248,2.159559,1.088248,2.159559
Ce1O14P5,3.863573,4.649643,3.876869,4.667359
Ce1O2,2.145195,3.356874,2.301521,3.512322
Ce1O3Sr1,2.682472,4.044659,2.785662,4.150367
Ce1O4P1,2.8849689999999995,4.683046,2.8849689999999995,4.713365
Ce1O4Si1,1.750406,2.998973,1.879594,3.098067
Ce1O4Sr2,2.648256,3.983069,2.737119,4.108805
Ce1O5Rh2,0.7087529999999989,1.9378229999999999,0.750025,1.9378229999999999
Ce1O7P2,2.063683,3.30165,2.078451,3.302431
Ce1Pt2,0.010004,0.164647,0.085105,0.438171
Ce1Ru4Sn6,0.05104000000000042,0.2743820000000001,0.298071,0.60745
Ce2Cl2O11Te4,1.7838190000000003,2.745499,1.813248,2.762074
Ce2F4Se1,3.091127,3.643256,3.110038,3.968229
Ce3Pt3Sb4,0.4122590000000006,0.802014999999999,0.469097,0.897421
Cl,2.448508,4.102159,2.570992,4.257508
Cl10Cs3O1Re2,0.0,0.881632,0.0,1.159948
Cl10Cu4K4O1,1.122611,2.873451,1.202581,2.936392
Cl10K4O1Re2,0.678291,2.513345,1.555677,3.403991
Cl10K4O1Ru2,0.599232,1.569812,0.671451,1.638965
Cl10K4O1W2,0.795217,1.816167,0.795217,1.816167
Cl10Nb1P1,2.247366,3.367105,2.247366,3.367105
Cl10P1Ta1,2.413531,3.834702,2.586389,4.07385
Cl11Cs1Hg5,2.707992,4.012357,3.546523,4.977968
Cl11Cs1Nb4,0.441676,1.323772,0.586203,1.456807
Cl11Hg5Tl1,2.688522,3.908494,3.514086,4.862932
Cl11K1Nb2,2.073177,3.186382,2.073177,3.186382
Cl11N1Re2S2,0.569089,1.885224,0.604801,1.914761
Cl11N3P4,2.858784,4.139806,3.202909,4.447838
Cl11Nb4Rb1,0.44064499999999995,1.3197389999999998,0.589376,1.458131
Cl11P1W4,0.593264,1.2220429999999998,0.593264,1.2220429999999998
Cl12Co1Sc7,0.12856600000000018,0.6187270000000007,0.265489,0.693947
Cl12Cs4Sb1Tl1,1.063134,2.128254,1.396061,2.494973
Cl12Hf1Se2,2.846325,3.977791,2.996224,3.977791
Cl12Mo1Se2,0.04091,1.415386,0.121359,1.496241
Cl12Mo6,0.114593,0.888528,0.114593,0.888528
Cl12N1Nb1P2,2.414935,3.540149,2.508068,3.634095
Cl12N1P2Ta1,2.886139,4.116833,3.088552,4.260529
Cl12Os1Se2,0.046088,1.411825,0.166181,1.535382
Cl12Os1Te2,0.0,1.330575,0.0,1.722094
Cl12Re1Se2,0.9551550000000002,2.524261,1.030581,2.591222
Cl12Re1Te2,0.8245889999999998,2.4409199999999998,1.104824,2.745277
Cl12Re2S1,0.848223,2.415841,0.874288,2.515969
Cl12Sc7,0.07145,0.858945,0.364105,1.22726
Cl12Se2Zr1,2.871111,4.00182,2.977523,4.00182
Cl13Li1Mo6,2.466833,3.569277,2.634357,3.89231
Cl13Mo6Na1,2.453542,3.547647,2.654889,3.897012
Cl14Sn2W3,0.776494,1.372315,0.860166,1.501225
Cl15Co1Zr6,1.031638,1.84717,1.031638,1.84717
Cl16Ga4Hg11P4,1.601417,2.327821,2.541435,3.270685
Cl16Ge6,3.090492,4.285217,3.294422,4.49986
Cl16Hg3Tl10,2.508772,3.578817,2.508772,3.578817
Cl16Si6,4.724615,5.910846,4.724615,5.910846
Cl17P1W6,0.013837,0.311623,0.31746,0.841986
Cl18Cs2Nb6Pb1,1.069505,1.5843,1.069505,1.5843
Cl18Cs2Pb1Ta6,1.478028,1.973634,1.526676,2.046761
Cl18K2Mn1Nb6,1.016602,1.501377,1.016602,1.501377
Cl18Nb6Tl2V1,0.813493,1.29041,0.904747,1.396073
Cl1Cr1Cs1O3,2.774145,4.099737,2.902048,4.256839
Cl1Cr1K1O3,2.769353,4.092945,2.848362,4.161948
Cl1Cr1O1,1.547968,2.940962,2.31228,3.698281
Cl1Cr1O3Rb1,2.797429,4.127183,2.875284,4.20214
Cl1Cs1,4.859846,6.109946,7.275207,8.67221
Cl1Cs1Mn2O7V2,1.918516,2.498619,1.99807,2.564936
Cl1Cs1N1O4Tc1,2.368147,4.014471,2.445718,4.104433
Cl1Cs1O2,2.331525,4.119284,4.039829,6.07598
Cl1Cs3O1,1.587224,2.667483,3.035595,4.157986
Cl1Cs8Ga11,0.942312,1.28218,1.212999,1.561639
Cl1Cu1,1.123257,2.094411,1.123257,2.094411
Cl1Cu1H1O1,1.212364,3.050029,1.654484,3.476923
Cl1Cu1H3N1,2.510328,3.596086,4.34993,5.396099
Cl1Cu1H3O3Zn1,2.007985,4.074648,3.477722,5.010568
Cl1Cu1Hg1S1,0.988736,1.828321,2.167533,3.09031
Cl1Cu1Hg1Se1,0.974305,1.740209,1.391302,2.224802
Cl1Cu1K4O15V5,1.253559,2.191081,1.596496,2.987508
Cl1Cu1La1Nb2O7,0.141227,1.59061,3.402729,4.51604
Cl1Cu1La1O7Ta2,0.196053,1.638648,3.629636,3.098757
Cl1Cu1O2Sr2,2.787064,4.077158,3.298351,5.083667
Cl1Cu1P4Se3,1.702772,2.525767,1.816767,2.652347
Cl1Cu1Se2,1.068715,1.714731,1.361926,2.119963
Cl1Cu1Te2,0.798378,1.3756180000000002,1.498831,2.145359
Cl1Cu2H3O3,1.222819,3.196072,1.381553,3.313616
Cl1Cu3O8Se2Y1,1.506206,3.417652,1.630094,3.451269
Cl1Cu3S3Te1,1.027479,1.810302,2.064656,1.976809
Cl1D1,5.912271,7.402437,7.471595,9.1986
Cl1F1,2.073956,3.940148,2.073956,3.940148
Cl1F10Sb1,2.389224,4.408869,2.389224,4.408869
Cl1F1I1O1,2.027607,3.249707,2.171899,3.399399
Cl1F1O1Pb2,2.521603,3.530253,4.500222,5.604758
Cl1F1O7Pb2Se2Ti1,2.169131,3.2624959999999996,2.65347,3.843308
Cl1F3,2.584901,4.720749,2.675135,4.80128
Cl1F4N1O1,1.631389,3.469665,1.631389,3.469665
Cl1F5Ge1O2,1.757725,3.603172,1.802548,3.623195
Cl1F6K3Re1,1.858004,4.193285,1.909113,4.250066
Cl1F6O2Ru1,0.547927,2.758178,0.817297,3.04472
Cl1F6O2Sb1,2.04275,4.034702,2.316193,4.324924
Cl1Fe1Li1Mo1O4,2.000535,2.27972,2.297037,2.606368
Cl1Fe1Mo1O4,1.77977,2.749138,2.50449,3.737814
Cl1Fe1N3O3,0.731232,1.793397,1.024333,2.244302
Cl1Fe1O1,2.146671,3.280432,2.316368,3.45579
Cl1Fe1O3Sr2,2.406924,4.019166,2.746472,4.030187
Cl1Fe1O4W1,1.950131,3.087824,2.538941,3.788384
Cl1Fe2H3O12Te4,2.194752,3.250069,2.329928,3.408989
Cl1Fe3O8Pb4,1.794819,2.905594,1.794819,2.905594
Cl1Ga1Te1,2.147943,2.936577,2.147943,2.936577
Cl1H1,2.728092,4.080636,10.417852,12.187782
Cl1H1O1Pb1,2.812955,3.747122,3.391822,4.338472
Cl1H1O3Pb3,2.148877,3.064233,2.993345,3.955434
Cl1H2Hg1N1,2.49693,3.8604,4.530816,5.808389
Cl1H4N1O2,3.053216,4.896877,3.053216,4.896877
Cl1H4Na1O6,5.260755,7.232065,6.747608,8.793
Cl1H5N2,5.328169,6.743755,6.723437,8.269041
Cl1Hf1N1,2.231317,3.236764,3.360187,4.520027
Cl1Hg2O1,1.643306,2.659531,2.65081,3.723334
Cl1Hg2P3,1.105534,1.7349530000000004,1.895158,2.63142
Cl1Hg3I1S2,1.297508,2.235412,2.281375,3.303982
Cl1Hg3O4P1,2.34055,3.435056,2.650094,3.761034
Cl1I1,0.140116,0.943182,0.73001,1.604023
Cl1I1Pb1,2.680746,3.4962109999999997,3.235031,4.065227
Cl1I1Sn1,2.369537,3.127951,2.494851,3.270912
Cl1In1,2.145223,2.783231,2.175015,2.813598
Cl1In1K6Te4,2.029843,2.809098,2.029843,2.809098
Cl1In1O1,2.327824,3.684339,5.141352,6.726353
Cl1In1S4Sb2,1.48767,2.160552,1.891507,2.570857
Cl1In1Te1,1.613056,2.441472,1.613056,2.441472
Cl1In5S5,1.204301,1.9062500000000004,1.529432,2.264245
Cl1In5Se5,0.868662,1.482139,1.319512,1.971165
Cl1K1,4.789833,6.123215,7.285652,8.792192
Cl1K1Mo1O5P1,0.429583,2.306264,0.730172,2.623346
Cl1K1O2,2.326321,4.14024,4.160178,6.312137
Cl1K3O1,1.009335,2.190715,1.009335,2.190715
Cl1K3O1S3W1,2.28785,2.935484,2.28785,2.935484
Cl1La1Nb2O6,2.551923,3.831859,2.551923,3.831859
Cl1La1O7Pb6,2.120812,3.079428,2.328699,3.079428
Cl1La1Se1,1.325181,2.135487,1.325181,2.135487
Cl1La1Te1,0.611021,1.232877,0.611021,1.232877
Cl1La3S8Si2,2.588083,3.753288,2.748711,3.753288
Cl1Li1,6.616023,8.040785,11.275783,12.800027
Cl1Li1O2,2.653088,4.446866,2.653088,4.446866
Cl1Li4N1,1.83625,2.850073,4.215389,5.357191
Cl1Lu1Mo1O4,2.737783,3.876991,3.10854,4.271284
Cl1Lu1O4W1,3.402168,4.634842,3.833822,5.085341
Cl1Mn1O3,2.570189,2.913816,2.723154,2.913816
Cl1Mo1O4Y1,2.489998,3.592327,2.92531,4.067945
Cl1Mo1O5P1Rb1,0.430945,2.304898,0.707724,2.594978
Cl1N1O1,1.764295,3.122478,2.118242,3.46707
Cl1N1O6,1.445439,3.27793,1.492961,3.343261
Cl1N1S1,2.599317,3.745995,2.749132,3.745995
Cl1N1Sr2,1.894755,2.929077,1.894755,2.929077
Cl1N1Ti1,0.499722,1.395464,1.555218,2.561425
Cl1N1Zn2,2.354299,3.5032940000000004,2.354299,3.5032940000000004
Cl1N1Zr1,3.1688460000000003,4.265675,4.19595,5.480582
Cl1N2O6S5,1.13968,1.398037,1.383831,1.398037
Cl1N2S2,2.520629,3.517189,2.597141,3.607562
Cl1N3,2.241743,3.736844,2.506692,4.041485
Cl1N3O2S3,2.211506,3.298524,2.340058,3.429441
Cl1N3Pt1S4,1.476618,2.147008,1.484651,2.155624
Cl1N5S4,1.777917,2.6769570000000003,2.051447,2.994464
Cl1N5S5,1.4191330000000002,2.235011,1.709895,2.54873
Cl1N6Sb1,0.731782,1.470953,1.247078,2.050265
Cl1Na1,5.297766,6.667959,5.297766,6.667959
Cl1Na1O2,2.396447,4.264897,2.396447,4.264897
Cl1Na1O3,2.225815,3.995601,2.407862,4.206032
Cl1Nb1O8Pb2Se2,2.199665,3.309028,3.342268,4.517223
Cl1O1V1,1.455572,2.47121,2.603551,3.647266
Cl1O2,1.004588,1.626686,1.004588,1.626686
Cl1O2Pb1Sb1,1.911492,2.798801,2.917269,2.798801
Cl1O2Rb1,2.385091,4.223608,4.119102,6.262966
Cl1O3,1.287787,2.456975,1.468683,2.649453
Cl1O3Pb1V1,2.283275,3.016146,2.47402,3.198421
Cl1O3Sr1V1,2.152419,3.015993,2.152419,3.015993
Cl1O4P1Sn2,2.611125,3.497868,2.611125,3.497868
Cl1O4Sb3,2.687143,3.749941,3.399358,4.449302
Cl1O8Pb2Se2V1,1.478651,2.054722,2.242788,2.989458
Cl1O9Re1S2,2.367392,3.742058,2.397035,3.774646
Cl1Pd1S1,0.8474620000000002,1.93201,1.01023,2.105725
Cl1Rb1,4.745027,6.084636,6.86393,8.271188
Cl1Re3S4,1.7024890000000004,2.440744,2.016139,2.78069
Cl1Re3Se4,1.190505,1.7219580000000003,1.738235,2.329951
Cl1Rh1Te1,0.822738,1.8228710000000001,1.518155,2.584539
Cl1Se2Tl5,0.357758,0.822573,0.357758,0.822573
Cl1Tl1,2.102841,2.913083,2.102841,2.913083
Cl2Co1,2.510365,4.167026,3.381702,5.192805
Cl2Co1H2O1,2.288679,3.929639,2.515861,4.273926
Cl2Co1O6Se2Sr2,2.909845,4.636135,2.909845,4.636135
Cl2Co1O8,2.967604,4.780447,3.601316,5.574531
Cl2Co2O3Te1,2.435589,3.969189,2.537425,4.193252
Cl2Co3O10Se4,2.406821,4.074532,2.596095,4.219584
Cl2Cr1,2.02702,3.065528,2.331246,3.378772
Cl2Cr1H12I1N4,2.4285360000000003,3.6196099999999998,3.107449,4.410005
Cl2Cr1O2,2.099675,3.132229,2.451208,3.552032
Cl2Cr3F6K2,2.4514,3.607413,2.635419,3.857955
Cl2Cs1I1,2.243851,3.388355,5.428259,6.604858
Cl2Cs2Mn1O6V2,2.080842,2.736988,2.55636,3.398137
Cl2Cs2N2O6Pb1,2.72954,3.842528,2.798107,3.842528
Cl2Cu1,0.679056,2.265312,5.960982,7.455272
Cl2Cu1H4O2,1.708311,3.572484,1.895738,3.572484
Cl2Cu1H4O4Pb2,1.447179,3.276783,3.965411,3.276783
Cl2Cu1H6N2,1.081574,2.805369,1.632157,3.361262
Cl2Cu1O6Se2Sr2,1.31458,3.160799,1.84874,3.751462
Cl2Cu2O1,0.869023,2.673028,1.469711,3.220997
Cl2Cu2O5Te2,1.316643,3.120172,1.671757,3.471259
Cl2Cu2O6Pb1Te2,1.230844,3.016639,1.594,3.429424
Cl2Cu2O6Se2Sr1,1.559754,3.4411,1.672023,3.4411
Cl2Cu2O6Sr1Te2,1.258598,3.083317,1.632749,3.506127
Cl2Cu3H6Mg1O6,1.4635170000000002,3.619628,1.770132,3.923624
Cl2Cu3H6Ni1O6,1.356629,3.258671,2.289514,4.190139
Cl2Cu3H6O6Zn1,1.4493449999999999,3.613375,1.784893,3.949907
Cl2Cu3O6Se2,0.686362,2.493201,0.994175,2.82141
Cl2Cu3O8Pb1V2,0.925348,2.388003,1.285225,2.388003
Cl2Cu5O8Se2,1.336844,3.197921,1.486576,3.335681
Cl2F6I1Sb1,1.858586,3.203017,1.858586,3.203017
Cl2Fe5O18Te6,0.077827,0.100473,0.976403,0.100473
Cl2H12N6O6Pt1,2.329118,3.889863,3.226039,4.946958
Cl2H2Mo1O3,2.160642,3.118274,2.183694,3.162419
Cl2H4Mg1O10,5.3481630000000004,7.370875,6.519016,8.755194
Cl2H4Mg1O8,5.491077,7.299636,5.772395,7.629901
Cl2H4O6Zn1,2.587978,4.160859,3.275608,4.921602
Cl2H8Mn1N4,3.809978,4.929333,4.63883,5.728534
Cl2H8N2O2Pt1,1.749638,3.307957,2.115572,3.810814
Cl2Hg1,2.823934,4.218474,2.823934,4.218474
Cl2Hg1O2Pb2,2.237705,3.252347,3.577822,4.734352
Cl2Hg2,2.583301,3.590639,4.179681,5.124332
Cl2Hg2O2Sr1,1.659453,2.92368,2.997046,4.400795
Cl2Hg2P1,1.477986,2.4695679999999998,3.022856,4.09119
Cl2Hg3O2,0.208789,1.176844,2.905683,1.176844
Cl2Hg3S2,1.941212,3.011396,2.891577,3.011396
Cl2Hg3Se2,1.812366,2.804841,2.715899,3.827295
Cl2Hg3Te2,1.990662,2.817952,2.289368,3.165165
Cl2Hg4O2,1.871972,2.831961,2.791871,3.862154
Cl2Hg5O4,0.174592,1.270148,2.432651,3.761154
Cl2I1K1,2.351361,3.506741,2.435004,3.592651
Cl2I1N3S4,1.645783,2.571178,1.679327,2.608005
Cl2I2Ta1,1.129361,2.051501,1.519769,2.483007
Cl2K2N4O8Pt1,2.104882,3.317206,2.326545,3.496343
Cl2Li5N1,2.09107,3.177907,3.009667,4.136998
Cl2Mg1,4.938414,6.347457,8.247033,9.69842
Cl2Mn1,3.902337,4.795309,4.451959,5.407818
Cl2Mn4O7Si1Te1,2.795513,3.750072,2.982228,3.750072
Cl2Mo1O5Pb3,1.654697,2.507015,2.036154,2.916475
Cl2N2O4Pd1Rb2,1.65824,3.322969,1.845737,3.370032
Cl2N2S2Te1,1.667675,2.510862,1.907658,2.812744
Cl2N2S3,1.614546,2.419058,1.954811,2.809073
Cl2N3S2V1,0.927177,1.519698,1.136964,1.764156
Cl2Nb1S2,1.457538,2.457545,1.457538,2.457545
Cl2Nb1Se2,0.9521760000000001,1.869682,1.702594,2.653048
Cl2Ni1,3.224243,4.028421,3.508189,4.363149
Cl2O1,0.975196,2.767403,1.453191,3.247707
Cl2O11Te6,2.96739,4.042344,3.3198,4.437095
Cl2O1Pd2,0.748636,2.400325,1.500965,3.231377
Cl2O1V1,0.876747,1.467579,1.43909,2.068772
Cl2O2Pb3,2.390607,3.3697190000000004,3.099885,4.09529
Cl2O2W1,1.973509,2.912373,4.100493,5.308128
Cl2O4Pb1,1.267896,2.666821,2.270065,3.765727
Cl2O4Sr1,2.443814,4.232135,3.165183,5.084186
Cl2O5Sb4,2.635571,3.555796,3.148289,4.098186
Cl2O6Pb2Pd1Se2,1.596943,3.001954,1.839541,3.266056
Cl2O6Pb3Te2,2.520159,3.530408,2.520159,3.530408
Cl2O7,3.666981,5.5172,3.97629,5.8317
Cl2Pb1,3.79334,4.825731,4.324548,5.382561
Cl2Pd1,1.356414,2.851935,1.484211,3.005243
Cl2Pd1Se6,1.211805,2.159122,1.625165,2.612674
Cl2Pt1,1.739318,3.128502,1.871905,3.275804
Cl2Re3S4Tl1,1.876854,2.52884,2.105368,2.850994
Cl2Re3Se4Tl1,1.490522,2.158459,2.191434,2.90051
Cl2Ru1Te8,0.0,0.356342,0.0,1.10416
Cl2S7Te1,2.209694,3.157015,2.331731,3.187687
Cl2Se2,1.925467,2.914457,2.151316,3.132841
Cl2Si1,1.986507,2.87626,2.086489,2.979095
Cl2Sn1,3.068424,3.964134,3.973351,4.892925
Cl2Sr1,5.265612,6.558758,6.994595,8.528164
Cl2Te3,1.330583,1.939064,1.468077,2.072171
Cl2V1,3.12463,4.0707830000000005,3.12463,4.0707830000000005
Cl2Zn1,4.358208,5.609522,4.358208,5.609522
Cl2Zr1,0.894779,1.475117,2.384056,3.272168
Cl3Co1Cs1,1.870701,3.312479,1.870701,4.858609
Cl3Cr1,2.304683,3.61735,2.4287,3.767186
Cl3Cr1O1,1.243413,2.235119,1.295994,2.302955
Cl3Cr1Rb1,1.889977,2.865627,4.057055,4.976496
Cl3Cs1Cu2,2.552375,3.543021,2.552375,3.543021
Cl3Cs1Ge1,1.997233,2.770637,1.997233,2.770637
Cl3Cs1Hg1,0.0,0.53268,0.0,6.600406
Cl3Cs1Mn1,3.760028,4.899417,4.240278,5.046677
Cl3Cs1Ni1,3.416749,4.343371,3.545848,4.523357
Cl3Cs1Pb1,2.14552,2.864395,2.14552,2.864395
Cl3Cs1Pd1,1.503369,3.123848,1.503369,3.123848
Cl3Cs1Sn1,0.903644,1.4252300000000002,0.903644,1.4252300000000002
Cl3Cs2O3Re1,2.276321,3.401093,2.283428,3.41022
Cl3Cu1K1,1.284232,2.860764,1.372086,2.936441
Cl3Cu1K2,2.799626,3.800184,2.799626,3.800184
Cl3Cu1Rb1,1.125111,2.674275,1.309343,2.85727
Cl3Cu1Rb2,2.725722,3.71424,2.725722,3.71424
Cl3Cu1Tl1,0.4111180000000001,1.739226,0.617756,2.020341
Cl3F2Sb1,1.62318,2.973497,2.679761,4.142378
Cl3Fe1,2.105103,3.077884,2.160884,3.077884
Cl3Ga1,3.833246,5.296158,4.242882,5.735179
Cl3H12N5O1Os1,2.347727,3.761319,2.370401,3.78
Cl3H6La1O9,2.617065,4.454084,2.861608,4.657867
Cl3H9N3Rh1,2.642137,4.298821,2.778199,4.457828
Cl3Hg1Na1,2.599148,3.906731,3.091466,3.906731
Cl3Hg1Tl1,2.535212,3.643399,2.568058,3.643399
Cl3Hg2K1O3S1,2.676799,3.844161,3.444404,4.759292
Cl3I1N1V1,1.520556,2.192033,1.616538,2.287833
Cl3Ir1,1.975251,3.377063,2.111366,3.507215
Cl3Ir1Te6,1.032317,1.634728,1.386032,2.009655
Cl3K1Mn1,4.037895,4.970812,4.494537,5.463971
Cl3K1Ni1,3.39159,4.310652,3.441976,4.376025
Cl3K1Tc1,1.894462,3.125839,2.100833,3.314853