material formula,Band_gap_GGA,Band_gap_HSE,Band_gap_GGA_optical,Band_gap_HSE_optical
O7Te3Tl2,2.738385,3.698343,3.067119,4.053896
O7Ti2Y2,2.571967,4.0208,2.571967,4.0208
O7Ti4,0.0,0.183654,0.0,0.502246
O7Tl4V2,2.704942,3.377602,2.7301,3.431249
O7V2Zn2,2.761895,3.534887,2.973725,3.785572
O7V2Zr1,2.647793,3.707385,2.737251,3.817907
O8P2Pb1Ti1,2.37792,3.768786,2.442276,3.840252
O8P2Sr1Ti1,2.518964,4.088319,2.553464,4.12307
O8P2Ta1Tl1,3.1579889999999997,4.3938999999999995,4.22466,5.38455
O8P2W1,1.906649,3.283691,2.019862,3.378142
O8P4,4.56273,6.006821,4.739996,6.221057
O8Pb3V2,2.941221,3.802091,2.941221,3.802091
O8Rb1S2Tl1,1.605693,2.990637,6.527642,8.363152
O8Rb1V3,2.079713,3.037258,2.471616,3.467483
O8Rb2V3,2.013363,3.064957,2.176282,3.194997
O8Rb3Ta1,2.962356,5.184463,3.698262,5.589028
O8S4Sn2,2.320107,3.248668,2.495135,3.412853
O8Se1Te3,2.908672,4.03742,3.255954,4.03742
O8Se2V1Y1,1.382606,2.223208,2.26307,3.432622
O8Si1Sn6,1.79576,2.564567,1.79576,2.564567
O8Sr1Te3,2.179332,3.255189,2.461753,3.554383
O8Tl1V3,1.910144,2.495385,1.910144,2.495385
O8V2Zn3,2.970852,3.857279,3.091129,3.91622
O9P2Sn4,2.99826,3.960505,3.259,4.236412
O9P2V1Zn2,2.700051,3.933425,2.703871,3.937721
O9P3V1,2.079741,3.192903,2.206999,3.326636
O9P4,5.565196,7.116759,5.682614,7.244693
O9Rb2Si3Ti1,3.0134160000000003,4.57614,3.0134160000000003,4.57614
O9Rb2V4,2.113471,3.000838,2.233574,3.15223
O9Rb6Te2,0.799894,2.414454,0.799894,2.414454
O9Re2V1,2.218088,3.326853,2.333984,3.677231
O9S3,5.117213,7.088848,5.117213,7.088848
O9Te2V2,2.335862,3.188982,2.488469,3.412843
O9Ti3V2,1.2549799999999998,2.2718540000000003,1.624414,2.733834
O9Ti5,0.0,0.433956,0.0,0.433956
O9V2Zn4,2.805157,3.550067,2.918752,3.684008
O9V5,0.429526,1.085622,0.660119,1.366859
Os1P1S1,0.93141,1.633581,1.923912,2.694918
Os1P1Se1,0.532149,1.138614,1.501074,2.179917
Os1P2,0.778162,1.439781,1.538003,2.315763
Os1P4,0.650444,1.295504,2.181744,2.986528
Os1S1Sb1,1.1225170000000002,1.8635509999999993,1.720256,2.459223
Os1Sb1Se1,1.074203999999999,1.850416,1.364434,2.037585
Os1Sb1Te1,0.872381,1.462269,1.413236,2.101295
Os1Sb2,0.361244,0.878733,1.05742,1.810552
Os1Se2,0.0,0.386313,0.0,2.455947
Os1Si2,0.675682,1.389095,1.427972,2.141972
P,0.0,0.507511,0.0,1.736688
P11Rb3,1.898472,2.697475,2.103311,2.919409
P14Sr3,1.745037,2.461494,1.837389,2.571654
P1Pb1Rb1S4,2.425913,3.314714,2.428527,3.760708
P1Pb1S3,2.23335,3.000624,2.685289,3.455266
P1Pb1S4Tl1,1.909214,2.785899,1.909214,2.785899
P1Pb1Se3,1.631228,2.392382,2.250376,3.017503
P1Pd1S1,1.085168,2.010455,1.664463,2.670293
P1Pd1Se1,0.995774,1.894144,1.490765,2.44048
P1Rb1S3,1.80301,2.859986,2.862462,3.901024
P1Rb1Se3,1.187799,2.032271,1.704984,2.611643
P1Rb1Se6,1.793439,2.601336,1.874201,2.686557
P1Rb3S4,2.814206,3.961257,2.814206,3.961257
P1Rh1Se1,1.149903,1.823527,1.716241,2.443503
P1Ru1S1,0.621627,1.264102,1.562984,2.306688
P1Ru1Se1,0.286602,0.840951,1.224823,1.88152
P1S1,2.18135,3.229103,2.547077,3.60337
P1S1Y1,0.063792,0.313307,0.07202,0.325333
P1S3Sn1,1.533598,2.225448,2.724042,3.465088
P1S3Tl1,1.700161,2.725726,2.973102,4.011634
P1S3V1,2.35927,3.148249,3.035645,3.91716
P1S3Zn1,2.252381,3.19681,2.784148,3.752391
P1S4Sc1,1.794345,2.864676,2.265084,3.392653
P1S4Sn1Tl1,1.595426,2.246539,2.072989,2.753334
P1S4Sr1Tl1,1.959832,2.898086,2.451945,3.440631
P1S4Tl3,1.997952,2.745135,2.346776,3.04702
P1S5Ti1Tl1,1.087167,2.041791,1.734237,2.617485
P1Sc1,1.617877,2.439626,1.617877,2.439626
P1Se3Sn1,1.229564,1.824344,1.60155,2.245556
P1Se3Sr1,2.059239,3.032044,2.423206,3.398646
P1Se4Tl3,1.353498,2.063691,1.565931,2.323456
P1Si1,1.383315,2.070299,1.806034,2.530765
P1Sr1,0.46232,1.152274,1.490284,2.196438
P1Y1,0.0,0.102215,0.0,1.806695
P2Pb1Rb4Se8,1.664122,2.6325,1.664122,2.6325
P2Pd1,0.327811,1.011214,1.757715,2.656243
P2Pd3S8,1.572829,2.678555,2.242039,3.357763
P2Pt1,1.07534,1.610889,1.624485,2.238369
P2Pt1Si2,0.473632,0.893626,0.786765,1.24461
P2Pt1Si3,0.631745,1.135112,1.979046,2.576266
P2Rb4Se9,1.351803,2.228501,1.351803,2.228501
P2Rh1,0.404681,0.864879,1.301064,1.953966
P2Ru1,0.504847,1.046072,1.385416,2.137375
P2S3,2.085955,3.032826,2.494897,3.467408
P2S5,2.506795,3.562051,2.60916,3.642446
P2S6Sb1Tl1,2.114701,2.923197,2.552192,3.341452
P2S6Ti1,1.378766,2.306603,1.571296,2.508463
P2S6Zr1,1.567812,2.492975,1.987508,2.915921
P2S7,1.932922,2.898073,2.043033,3.013376
P2S7Sc1Tl1,1.961442,3.092664,2.440008,3.602986
P2S7Zr1,1.560666,2.516073,1.799778,2.77804
P2S8Zn3,2.269601,3.404611,2.269601,3.404611
P2Sb1Se6Tl1,1.421862,2.120125,1.607462,2.321812
P2Se5,1.156394,2.050843,1.214016,2.050843
P2Se6Tl1Y1,1.444656,2.255428,1.883816,2.611583
P2Si1,1.235772,1.980578,1.235772,1.980578
P2Si1Zn1,1.312818,1.923514,1.312818,1.923514
P2Sn1Zn1,0.918681,1.525822,0.918681,1.525822
P2Sr1,0.772791,1.451195,1.294577,2.057642
P2Sr1Zn2,0.866589,1.43732,1.687963,2.26861
P2Zn1,1.387286,2.16693,2.473364,3.310611
P2Zn3,0.653294,1.036116,0.653294,1.036116
P3Rb1Zn4,0.418021,0.881126,0.418021,0.881126
P3Rb2,0.737689,1.361874,0.737689,1.361874
P3Re1,0.189994,0.632155,0.413621,0.632155
P3Ru1,1.132877,2.034719,1.579498,2.489693
P3S9Zn2,1.815078,2.895168,2.125904,3.22975
P3Sr1,0.0,0.468139,0.0,1.334778
P3Tc1,0.385327,1.038939,0.81469,1.038939
P4Re1,0.763874,1.470128,1.201028,1.959221
P4Ru1,0.729872,1.495495,1.946091,2.772178
P4Ru1Si4,1.393363,2.192997,2.6262,3.511952
P4S13V2,1.409143,2.190796,1.453204,2.234707
P4S3,2.627502,3.631367,2.663391,3.679049
P4S5,2.362272,3.356043,2.782325,3.776813
P4Se3,1.976253,2.877707,1.976253,2.877707
P4Se4,2.111469,3.083345,2.402999,3.392044
P4Se5,1.586072,2.313265,1.660781,2.313265
P4Sr3,0.892401,1.522519,1.961784,2.67873
P4Tc1,0.856517,1.624704,1.151931,1.955782
P4Zn1,0.94493,1.475706,1.754161,2.383096
P5Re2,0.471109,1.11036,0.471109,1.11036
P5Tl1,1.130318,1.742893,1.779589,2.384781
P5Y1,0.116021,0.675493,1.838145,2.564168
P6Pt4Sr1,0.388256,0.796349,1.327268,1.897696
P6Rb4,0.737047,1.36133,0.737047,1.36133
P6Sn2Sr5,0.380936,0.978995,0.730552,1.329243
P7Pb1,0.799636,1.360736,1.50103,2.101494
Pb1Rb1,0.344417,0.666227,0.631276,0.96141
Pb1S1,0.06409099999999945,0.47491400000000006,0.06409099999999945,0.47491400000000006
Pb1S3Sn1,0.97115,1.621463,1.23709,1.918207
Pb1S3Zr1,1.24519,1.948112,1.357794,2.077252
Pb1S4Sc2,1.604577,2.40895,1.87172,2.776843
Pb1S4Tl2Zr1,0.911869,1.499543,1.650243,2.439677
Pb1Sb2Te4,0.207264,0.533247,0.700735,1.067645
Pb1Sc2Se4,1.159805,1.967941,1.474651,2.380468
Pb1Se1,0.022118000000000304,0.35865100000000005,0.022118000000000304,0.35865100000000005
Pb1Se2,0.0,0.074749,0.0,1.322005
Pb1Se3Tl4,0.036826,0.339273,0.036826,0.339273
Pb1Se4Tl2Zr1,0.677356,1.223403,1.222807,1.986852
Pb1Te1,0.10987800000000014,0.42106999999999983,0.10987800000000014,0.42106999999999983
Pb1Te3Tl4,0.064511,0.227818,0.087071,0.227818
Pb2S4Si1,2.088252,2.842563,2.369275,3.14437
Pb2S5Sb2,1.004675,1.487595,1.244336,1.724697
Pb2Se4Si1,1.625801,2.304697,2.136096,2.847767
Pb3S12Sn3Y2,0.7022109999999993,1.3738289999999997,1.025996,1.721362
Pb4Se4,0.796785,1.327395,1.295488,1.813292
Pd1Rb2Se16,0.830355,1.519839,1.141948,1.845339
Pd1Rb2Se2,0.862341,1.654981,2.201264,3.045801
Pd1Rb2Te2,0.526238,0.922806,1.975331,2.458039
Pd1S1,0.0,0.852243,0.0,2.428508
Pd1S6Ta2,0.0,0.260803,0.0,0.942773
Pd1Sb1Sc1,0.2802,0.480492,1.631659,1.755524
Pd1Se1,0.236285,0.953772,0.84914,1.591468
Pd1Se2,0.0,0.42214,0.0,1.61581
Pd1Sn1Zr1,0.015187,0.297793,1.82323,2.45695
Pd2Se3Tl1,0.0,0.047493,0.0,1.067321
Pd3Rb2S4,1.294241,2.387133,1.806964,2.724367
Pd3Rb2Se4,0.916197,1.685558,1.290966,2.144611
Pd3Se8Ta2,0.586724,1.212639,1.075365,1.603692
Pd3Ta2Te5,0.0,0.107193,0.0,0.29362
Pt1Rb2S2,1.22412,2.351297,2.522866,3.600602
Pt1Rb2Se2,0.954606,1.988885,2.396861,3.375414
Pt1Rb2Te2,0.899066,1.563292,2.54937,3.049499
Pt1S1,0.210828,1.165064,1.062453,2.0621
Pt1S2,0.867463,1.376562,2.137415,2.726176
Pt1Sb1Sc1,0.648148,0.934249,2.026424,2.274885
Pt1Sb1Si1,0.09261,0.407973,0.751623,1.156618
Pt1Sb1Y1,0.120198,0.676792,0.120198,0.676792
Pt1Se1Si1,0.696497,1.199734,1.627907,2.193696
Pt1Si1Te1,0.315544,0.63511,1.090453,1.510913
Pt1Sn1Ti1,0.784996,1.31295,1.51439,2.237458
Pt2Rb1Se3,1.003127,1.636463,1.003127,1.636463
Pt2S3Tl1,0.870655,1.377456,1.789533,2.445017
Pt2Se3Tl1,0.390292,0.936249,1.066265,1.559372
Pt2Te3Tl1,0.0,0.053227,0.0,1.435929
Pt3Rb2S4,1.435013,2.426874,1.775415,2.8434
Pt3S8Ta2,0.597839,1.11777,1.380612,1.979041
Pt3Se8Ta2,0.721901,1.224495,0.911979,1.4239
Pt5S6Tl2,0.948705,1.647451,1.375362,2.216104
Rb1S2Sb1,1.908086,2.669792,2.620066,3.419466
Rb1S2Y1,2.318436,3.314208,3.489281,4.659135
Rb1Sb1,0.526569,1.023574,0.526569,1.023574
Rb1Sb1Se2,1.423538,2.12228,2.231454,2.94168
Rb1Sb2,0.367747,0.923578,0.750955,1.276495
Rb1Sb2Se4,1.009636,1.583674,1.73013,2.433293
Rb1Sb3Se5,0.680744,1.122155,1.181369,1.634926
Rb1Sc5Te8,0.36496,1.105396,0.570908,1.365529
Rb1Si1,1.092095,1.649427,1.679479,2.264049
Rb1Sn1,0.689969,1.121672,1.094031,1.531216
Rb1Te2Y1,1.369248,2.141978,2.208143,3.135145
Rb2S1,1.958677,2.867654,4.719319,5.802593
Rb2S10Sb2Sn3,1.627753,2.417953,1.940542,2.753913
Rb2S2,1.688122,2.756268,3.262062,4.343766
Rb2S3,1.275732,2.365057,2.784778,3.962265
Rb2S3Si1,2.812231,3.890301,3.181092,4.280599
Rb2S4W1,1.938303,2.72775,1.938303,2.72775
Rb2S4Zn3,2.999314,3.839596,3.937005,3.839596
Rb2S5,1.717979,2.754194,1.956453,3.018218
Rb2S7Sb4,1.186196,1.815065,1.773781,2.452685
Rb2Se1,1.785867,2.630857,4.444966,5.449531
Rb2Se2,0.837056,1.803637,3.471136,4.468525
Rb2Se3,0.615007,1.473273,2.227945,3.239498
Rb2Se3Sn1,1.594897,2.442259,1.594897,2.442259
Rb2Se4Te1,0.861527,1.64004,1.946848,2.724185
Rb2Se4W1,1.306399,1.966594,1.306399,1.966594
Rb2Se5,0.744072,1.528001,1.164791,1.944054
Rb2Se5Sn2,0.876219,1.540408,1.574979,2.326947
Rb2Sn1Te5,0.612564,1.168234,1.072296,1.168234
Rb2Te1,1.863966,2.604895,3.927131,4.816415
Rb2Te2,0.776309,1.517404,1.45479,2.272545
Rb2Te3,0.587013,1.264049,0.649657,1.324357
Rb2Te3Zr1,0.064763,0.143898,0.090675,0.270649
Rb2Te5,0.261326,0.767677,1.166075,1.724725
Rb3S3Sb1,2.687345,3.512724,2.837231,3.722155
Rb3S4Sb1,2.008437,3.1103,2.008437,3.1103
Rb3S4Ta1,2.849785,3.810784,2.849785,3.810784
Rb3S4V1,1.962832,2.651739,1.962832,2.651739
Rb3Sb1,0.059742,0.545943,1.558857,2.073025
Rb3Sb1Se3,2.315384,3.082769,2.356612,3.163744
Rb3Sb1Se4,1.285858,2.182393,1.596366,2.509818
Rb4Sb4,0.605885,1.129957,0.958966,1.517033
Re1S1Te1,0.081314,0.524392,0.685397,1.12997
Re1S2,1.260806,1.880923,1.538069,1.880923
Re1Se2,1.168984,1.753143,1.810072,2.46355
Re1Te2,0.325263,0.682721,0.969654,1.475822
Re4Si7,0.016427,0.532261,0.478097,1.038028
Re6S11Sr2,1.415593,2.087572,1.513511,2.192125
Rh1S1Sb1,0.913335,1.4837039999999995,1.581579,2.260518
Rh1Sb1Se1,0.6923310000000003,1.2306920000000003,1.430892,2.03785
Rh1Sb3,0.0,0.156275,0.0,0.156275
Rh1Se2,0.0,0.158183,0.0,1.01199
Rh2S3,0.293901,1.100445,0.47694,1.100445
Ru1S1Sb1,0.9237199999999994,1.741505,1.489367,2.271343
Ru1S2,0.578873,1.580138,1.947539,3.10004
Ru1Sb1Se1,0.8061679999999996,1.4970620000000006,1.517029,2.221188
Ru1Sb1Ta1,0.679681,1.295818,2.28114,2.990521
Ru1Sb1Te1,0.626909,1.109487,1.060733,1.685809
Ru1Sb1V1,0.634156,1.127348,1.237978,1.842258
Ru1Sb2,0.020037,0.53363,0.599446,1.294468
Ru1Se2,0.277541,1.138644,1.579803,2.598746
Ru1Te2,0.017783,0.566638,1.659137,2.325541
Ru2Si3,0.52476,1.05655,0.52476,1.05655
S,2.253652,3.375313,2.874457,4.082503
S11Ta2Tl4,0.515976,0.794533,0.549425,0.820375
S1Sn1,0.120442,0.528484,2.095089,2.623753
S1Sr1,2.47816,3.458586,3.612212,4.657601
S1Tl1,0.319598,1.005954,0.857976,1.515288
S1Tl2,0.797775,1.24748,1.363349,1.849158
S1V1,1.947683,2.60235,2.561504,3.149873
S1Zn1,2.853572,3.609357,2.853572,3.609357
S2Sb1Tl1,1.426792,2.068318,1.754675,2.41101
S2Sc1Tl1,0.926742,1.467553,1.620188,2.691633
S2Si1,3.05214,4.052531,3.861384,4.975763
S2Sn1,1.165338,1.964143,2.442573,3.345454
S2Sr1,1.291018,2.349565,2.724378,3.734858
S2Tc1,1.074528,1.679112,1.466371,2.121664
S2Ti1,0.0,0.048,0.0,0.048
S2Tl1Y1,1.519661,2.116999,2.490151,3.43736
S2Tl2,0.307355,0.992001,0.854246,1.510484
S2V1,0.221719,0.682094,0.263496,0.730468
S2W1,1.231629,1.796403,2.448893,3.176113
S2Zn1,1.72041,2.502034,2.923724,3.872699
S2Zr1,0.99451,1.81672,1.869873,2.807894
S3Sb1Tl3,1.445491,2.076617,1.445491,2.076617
S3Sb2,1.270128,1.872658,1.481309,2.093174
S3Sc1Y1,1.754697,2.766559,1.871788,2.96615
S3Sc2,1.413891,2.399295,1.72316,2.753718
S3Si1Tl2,2.023503,2.753993,2.444016,3.19713
S3Sn1Sr1,0.771972,1.474454,1.521785,2.28721
S3Sn1Tl2,0.735333,1.391171,0.735333,1.391171
S3Sn1Tl4,0.592603,1.033071,0.859796,1.32016
S3Sn1Zr1,0.934603,1.539954,1.037122,1.539954
S3Sn2,0.638401,1.234822,0.932706,1.542511
S3Sn2Tl2,0.783487,1.315201,1.92696,2.52914
S3Sr1Zr1,1.217116,2.038612,1.217116,2.038612
S3Sr2Zn1,2.452597,3.377838,2.452597,3.377838
S3Ta1Tl1,0.458639,1.001557,0.60546,1.166482
S3Te1Tl2,1.288407,1.883213,1.75321,2.372358
S3Ti1,0.184908,0.980361,0.568188,1.40739
S3Tl2,0.617985,1.240545,1.034828,1.828972
S3Tl2Zr1,0.796169,1.452526,1.058128,1.751529
S3Tl4,0.49719,0.914146,0.750087,1.151044
S3Y2,0.650765,1.467515,0.650765,1.467515
S4Sb1Tl3,1.329326,2.122591,1.828229,2.704794
S4Sc2Sr1,1.363115,2.356653,1.861352,2.356653
S4Sc2Zn1,0.632728,1.548419,0.632728,1.548419
S4Si1Sn2,1.8638059999999999,2.512903,2.235315,2.924145
S4Si1Sr2,2.933262,3.937004,3.662199,4.707528
S4Si1Tl4,1.875214,2.519755,2.530721,3.235993
S4Sn1Sr2,2.470651,3.501886,2.84825,3.872586
S4Sn1Tl4,1.553828,2.252647,1.813981,2.539133
S4Sr1Y2,1.811291,2.753636,2.363468,2.753636
S4Ta1Tl3,2.523004,3.274257,2.810871,3.628117
S4Ti1Tl4,2.353553,3.111647,2.38655,3.111647
S4Tl3V1,2.130025,2.700993,2.130025,2.700993
S4V1,0.947235,1.59232,1.334197,2.112708
S4V3,0.556777,0.952686,0.556777,0.952686
S4V5,1.105383,1.537228,1.288332,1.537228
S4Y2Zn1,0.689217,1.678379,0.689217,1.678379
S5Sb2Sn2,0.6571,1.088964,0.862093,1.337289
S5Sb3Tl1,1.40704,2.029217,1.68186,2.33763
S5Sn2Tl2,1.425257,2.180119,1.772617,2.528192
S5Tl2,1.546505,2.404891,1.906991,2.807904
S5Y2Zr1,1.233126,2.073217,1.233126,2.073217
S7Sb4Sn1,0.592014,1.095421,1.017532,1.530648
S8Tl1V5,0.463098,1.066882,0.775481,1.066882
Sb1Se3Tl3,1.071341,1.613994,1.827964,2.402871
Sb1Sr2,0.0,0.119066,0.0,0.620062
Sb1Te2Tl1,0.029742,0.192649,0.029742,0.192649
Sb1V1,0.373468,0.587757,1.243071,0.587757
Sb1Zn1,0.1797550000000001,0.6295000000000002,0.505114,0.997858
Sb2Se1Te2,0.09943,0.15417,0.09943,0.15417
Sb2Se2Te1,0.539685,0.907544,1.47571,1.86115
Sb2Se3,0.352303,1.035869,0.352303,1.035869
Sb2Sn1Te4,0.373572,0.616703,0.373572,0.616703
Sb2Sn1Zn1,0.026558,0.356555,0.026558,0.356555
Sb2Sr1Zn2,0.0,0.25871,0.0,1.657884
Sb2Te2,0.0,0.014681,0.0,0.580349
Sb2Te3,0.17225000000000001,0.4304799999999993,0.17225000000000001,0.4304799999999993
Sb3Sr2,0.071925,0.363157,0.45789,0.7437
Sb3Te4.5,0.16537,0.424696,0.16537,0.424696
Sb4Sn3Sr1,0.0,0.034873,0.0,0.623412
Sc1Se2Tl1,0.574233,1.166394,1.037583,1.999132
Sc1Te2Tl1,0.0,0.700306,0.0,1.227486
Sc2Se3,0.591712,1.443925,1.524498,2.550079
Sc2Sr1Te4,0.465209,1.177349,0.465209,1.177349
Sc2Te3,0.0,0.244831,0.0,0.244831
Se,1.479159,2.299414,2.084776,2.974768
Se11Ta2Tl4,0.050813,0.086639,0.155456,0.16069
Se1Sn1,0.192838,0.117688,0.192838,0.117688
Se1Sr1,2.199261,3.097511,4.00004,5.066348
Se1Tl1,0.0,0.549693,0.0,1.187437
Se1V1,1.874434,2.403802,2.314182,2.986612
Se1Zn1,1.788975,2.535196,1.788975,2.535196
Se2Si1,1.66379,2.631459,3.368534,4.388451
Se2Sn1,0.649377,1.26697,3.598933,4.442799
Se2Sn1Tl2,0.664666,1.179156,1.002648,1.547504
Se2Ta1,0.0,0.354255,0.0,0.777085
Se2Tl1Y1,1.199305,1.873221,2.003826,2.873745
Se2Tl2,0.0,0.549693,0.0,1.187437
Se2W1,1.389607,1.89962,1.506499,1.966153
Se2Zn1,0.96319,1.622463,1.821728,2.619251
Se2Zr1,0.0,0.154857,0.0,1.37475
Se3Si1Tl2,1.530939,2.220392,2.047431,2.727316
Se3Sn1Tl2,0.888817,1.487797,1.005483,1.487797
Se3Sn1Tl4,0.064296,0.26793,0.074589,0.26793
Se3Sr1Zr1,0.184072,0.833704,0.184072,0.833704
Se3Tl2,0.641058,1.277001,1.665666,2.396776
Se3Y2,1.259867,2.093778,2.442897,3.408123
Se3Zr1,0.305722,1.038285,1.078176,1.924481
Se4Si1Tl4,1.320043,1.88184,1.669235,2.303576
Se4Sr1Y2,1.4123040000000002,2.2606729999999997,1.94131,2.865679
Se4Ta1Tl3,2.209615,2.869544,2.209615,2.869544
Se4Ti1Zr1,0.0,0.189024,0.0,0.918409
Se4Tl3V1,1.76598,2.280706,1.914385,2.623243
Se4V3,0.34225,0.724901,0.34225,0.724901
Se4Y2Zn1,0.307747,1.092201,0.307747,1.092201
Si,0.612995,1.188769,2.562729,3.327221
Si1Sr2,0.349862,0.745475,1.029735,0.745475
Si1Te3Tl3,1.077924,1.594559,1.540147,2.069374
Si2W1,0.046299,0.461164,1.05869,1.556673
Sn1Sr2,0.118536,0.441863,0.634549,0.441863
Sn1Te1,0.051149,0.293539,0.051149,0.293539
Sn1Te3Tl4,0.04828,0.219004,0.065515,0.219004
Sn1Te5Tl2,0.0,0.416712,0.0,0.416712
Sr1Te1,1.690515,2.449811,3.268368,4.190533
Te,0.253771,0.694276,0.420036,0.820902
Te1V1,1.009932,1.534496,1.009932,1.534496
Te1Zn1,1.598007,2.192322,1.598007,2.192322
Te2Tl1Y1,0.622618,1.213243,1.309428,2.047727
Te2W1,0.82901,1.20931,1.033617,1.443785
Te3Tl2,0.59539,1.020503,1.52627,2.049182
Te3Y2,0.54648,1.199813,0.54648,1.199813
Te4V5,0.998901,1.45452,1.56208,1.948657