material formula,Band_gap_GGA,Band_gap_HSE,Band_gap_GGA_optical,Band_gap_HSE_optical
F5Nb1,4.334248,6.270125,4.334248,6.270125
F5O1Os1,0.773317,2.712083,0.773317,2.712083
F5O1Pb1V1,2.45941,3.34085,2.45941,3.34085
F5O1Sn2,1.783829,2.810109,3.851413,5.077088
F5O4Tc1Xe1,2.039202,3.460303,2.203225,3.612478
F5Os1,0.686733,2.939499,0.750185,2.99473
F5P1,7.086379,9.59711,7.086379,9.59711
F5Pd1Rb3,2.316806,4.544184,2.328721,4.575336
F5Pd2Rb1,0.367388,2.613858,0.587264,2.817018
F5Ru1,0.48485,2.862598,0.542479,2.920557
F5Ta1,5.285906,7.265315,5.285906,7.265315
F6Fe1H12O6Sn1,1.691164,2.259449,3.738035,2.259449
F6Fe1H8N2Na1,3.617487,5.152263,3.617487,5.152263
F6Fe1Li1Mn1,2.287509,3.066091,2.346636,3.118726
F6Fe1Zr1,3.095442,3.659929,3.631672,4.301366
F6Fe2K1O8P3,2.206769,3.574904,2.249063,3.574904
F6Fe2Li1,1.1933230000000001,1.3835420000000003,1.1933230000000001,1.3835420000000003
F6Fe2Rb1,1.183387,1.385808,1.183387,1.385808
F6Ga1Li1Pd1,0.941262,3.838037,1.104055,4.044441
F6H12Mn1O6Ti1,1.881767,2.806257,1.96524,2.877044
F6H12O6Sn2Zn1,3.805712,5.380673,4.303885,6.198317
F6H2N3Sb1,1.247483,2.409853,1.448839,2.660006
F6Hg2Ni2O1,1.035776,1.958635,1.035776,1.958635
F6Hg2Ni2S1,2.058117,2.980502,2.058117,2.980502
F6Hg2O1Zn2,1.078527,2.544808,3.995592,2.544808
F6Hg3S2Si1,2.803872,4.467262,3.862925,5.657877
F6Hg4O1,0.151165,1.68698,0.151165,1.68698
F6I1Sb1Se6,1.464182,2.277935,1.663383,2.531017
F6I2O3,2.314871,3.950436,2.314871,3.950436
F6I5Sb1,0.894697,1.83753,1.013832,1.94096
F6Ir1,0.771929,2.851339,0.875767,2.944135
F6K1Mo1Tl2,0.571108,2.3942,0.571108,2.3942
F6K1Ni1Rb2,0.0,1.231477,0.0,1.231477
F6K1Os1,1.319737,3.60045,1.319737,3.664176
F6K1P1,7.006008,9.464837,7.006008,9.464837
F6K1Rb2Rh1,2.277283,4.511219,2.509377,4.75845
F6K1Ru1,1.132252,3.578557,1.132252,3.672013
F6K2Mn1Na1,1.516202,3.079591,4.334226,5.556147
F6K2Na1Ni1,0.0,1.139779,0.0,4.517973
F6K2Na1Rh1,2.117645,4.345437,2.527384,4.778065
F6K2Ni1,2.249877,4.362207,2.586609,4.726802
F6K2Pd1,2.12682,4.1966,2.259689,4.336331
F6K2Pt1,2.613196,4.60789,2.753458,4.756451
F6K2Re1,1.740217,4.056726,1.861285,4.183822
F6K2Tc1,1.779723,4.343631,1.884677,4.447261
F6K2Zr1,5.895574,8.079976,6.033229,8.213252
F6K3Mo1,1.640198,3.666112,2.166269,4.650975
F6K3W1,0.37552,2.287972,1.807094,3.871217
F6Li1Mn1Ti1,0.114706,3.136149,0.138736,3.161316
F6Li1Mn1V1,2.110212,3.001478,2.121607,3.001478
F6Li1Ni1Sr1,3.029604,3.550813,3.086691,3.550813
F6Li1Os1,1.222721,3.505471,1.380991,3.643005
F6Li1Ru1,1.056554,3.498357,1.252817,3.670549
F6Li2Mn1,2.775478,4.699208,2.792945,4.699208
F6Li2Nb1,0.016797,2.06033,0.2219,2.330809
F6Li2Pd1,1.974883,4.03632,1.974883,4.03632
F6Li2Pt1,2.53976,4.545018,2.53976,4.545018
F6Li2Ru1,0.083989,2.475436,0.314265,2.682098
F6Li2V1,1.989653,3.232506,2.118888,3.3745
F6Mg1Pd1,1.913391,3.945322,1.913391,3.945322
F6Mn1Na1Rb2,1.50429,3.063908,4.362815,5.591302
F6Mn1Na3,1.629082,3.183352,1.757676,3.323801
F6Mn1Pt1,1.916078,3.281122,2.113681,3.651672
F6Mn1Rb2,3.162171,5.091735,3.282784,5.225165
F6Mn1Sn1,2.701242,3.8007429999999998,2.701242,5.078941
F6Mo1,3.838131,5.417175,3.943262,5.52187
F6Mo1Na1Rb2,2.048354,4.52042,2.191848,4.673273
F6N1Re1,2.29588,3.760384,2.304657,3.769943
F6N1S2Sb1,2.63866,3.256124,2.63866,3.256124
F6Na1Rb2Rh1,2.074637,4.297385,2.074637,4.297385
F6Na1Rh1Tl2,1.909325,3.922599,2.456408,3.922599
F6Na2Nb1,0.285742,2.367276,0.285742,2.405573
F6Na2Pt1,2.762327,4.765459,2.784534,4.799313
F6Na2Tc1,1.774321,4.33818,1.927862,4.483723
F6Na3V1,2.3250409999999997,3.528669,2.325739,3.529858
F6Nb1Rb2,0.216413,2.265239,0.272553,2.328998
F6Ni1Pb1,2.24795,2.655236,2.24795,6.52639
F6Ni1Pt1,2.083629,4.083953,2.083629,4.179966
F6Ni1Rb2,1.871558,4.191814,1.871558,4.191814
F6O1Sn4,3.051239,3.942683,3.332919,4.277002
F6O1Xe2,2.788505,4.250318,2.881762,4.250318
F6O4Os1Xe1,2.514472,3.798658,2.514472,3.798658
F6O4Os2,0.644224,2.188404,0.721726,2.248674
F6O4Pb1Zr3,2.89387,4.140702,3.503513,4.930631
F6Pb1Pt1,2.001286,3.766518,2.878033,4.688212
F6Pb1Sr1,0.014284,1.125768,1.808373,1.125768
F6Pb1Zn1,2.48051,3.457668,9.529892,3.457668
F6Pb2,1.655231,2.785979,1.655231,2.785979
F6Pd1Pt1,0.770184,3.05665,0.881628,3.138031
F6Pd1Rb2,2.336957,4.411084,2.336957,4.411084
F6Pd1Zn1,1.651394,3.664095,1.651394,3.664095
F6Pd1Zr1,1.0054,3.990673,1.508303,4.498824
F6Pt1Rb2,2.685088,4.678713,2.791373,4.793778
F6Pt1Zn1,2.113459,4.178331,2.113459,4.178331
F6Rb1Ru1,1.178055,3.631154,1.178055,3.710195
F6Rb2Tc1,1.828984,4.405632,1.920175,4.491024
F6S1,5.87572,8.547205,6.292713,9.026314
F6Sn2,2.623759,3.767847,5.502506,6.638677
F6V1Zr1,2.8484220000000002,3.701888,3.12528,3.734969
F6W1,4.845142,6.585766,4.845142,6.585766
F6Xe2,2.521176,4.090776,2.565719,4.129003
F7Fe1Na2Ni1,2.999453,3.459508,2.999453,3.521568
F7H1I1N1O1,2.311836,4.289862,2.472202,4.289862
F7H1K2Ti1,4.541794,6.5195229999999995,4.578329,6.5195229999999995
F7Hf1K1Pd1,0.655299,3.569113,0.655299,3.569113
F7I1,1.520523,3.685194,2.12983,4.349373
F7K1Pd1Zr1,0.660243,3.570819,0.660243,3.570819
F7K1V1Zr1,2.791933,3.77775,2.791933,3.77775
F7K2Mn2Rb1,3.912041,5.101859,5.406099,6.673525
F7K3Mn2,3.823115,4.985866,5.303442,6.538556
F7K3N2O6Sb2,2.92564,4.811494,3.596267,5.635162
F7Kr1Sb1,2.391799,4.551986,2.472197,4.638056
F7Mn1Rb3,1.52142,3.272286,1.52142,3.272286
F7O3Os2,0.357784,1.513323,0.444403,1.55794
F7Pb2Rh1,1.866733,3.847252,1.866733,3.847252
F7Rb3Ti1,2.804083,4.598932,2.810608,4.598932
F7Re1,1.877359,3.5635,1.954481,3.633327
F7Sn1Tl1,1.558811,3.403916,2.836585,4.755707
F8Fe3H4O2,1.066384,1.212788,1.110095,1.262208
F8Ge3,3.991971,5.392652,4.917555,6.3948
F8I2Pb5,2.906816,3.804256,3.701512,4.696386
F8K2Re1,1.11601,3.255119,1.200154,3.329163
F8O2Pb1V2,3.301877,4.196439,3.397291,4.292502
F9Nb1Se1,5.000193,6.556507,5.000193,6.556507
Fe1Ga2Se4,0.772658,1.603922,2.07855,3.019564
Fe1Ga3,0.455478,0.948479,0.974538,1.594272
Fe1Ge1Li2S4,2.012228,2.711176,2.424603,3.17999
Fe1Ge2Li1O6,2.632472,4.050249,2.708327,4.117355
Fe1Ge2Na1O6,2.628904,3.957967,2.628904,3.957967
Fe1Ge3H4O10Pb1,2.327064,2.794186,3.341436,3.769929
Fe1H10N4O8S2,3.807454,4.356528,3.901227,4.476545
Fe1H1Li1O5P1,2.133207,3.628334,2.340362,3.698693
Fe1H1O2,1.995181,3.251323,1.995181,3.251323
Fe1H2K1O6P2,1.9665469999999998,3.3218199999999998,1.9665469999999998,3.3218199999999998
Fe1H2K1O9S2,1.993407,3.290137,2.13268,3.290137
Fe1H2O5P1,1.996473,3.477694,2.253288,3.605813
Fe1H2O5V1,2.267316,3.40725,2.506304,3.716465
Fe1H2O6P2Rb1,1.9607029999999999,3.318671,1.978198,3.318671
Fe1H5N1O10P3,2.371369,3.864832,2.371369,3.864832
Fe1H6Mg2,3.016096,4.191875,5.169802,6.506373
Fe1H6O6P3,2.559529,3.885731,2.622266,3.959929
Fe1H6O9P3,2.474872,3.842929,2.510573,3.884731
Fe1H6Sr2,2.769333,3.777331,3.888511,5.1047
Fe1H8O12Re2,1.391223,1.5982539999999998,1.749276,1.98571
Fe1I2,2.07448,2.881398,2.560476,3.431871
Fe1I3O9,2.261842,3.468695,2.413752,3.618678
Fe1I3Tl1,2.032842,2.938039,2.266348,3.27484
Fe1In1O3,1.798381,3.278478,1.939939,3.406528
Fe1K1Mo2O8,2.14696,3.621278,2.14696,3.621278
Fe1K1Na1O10Si4,2.765253,3.231618,2.765253,3.231618
Fe1K1Na2O3,2.667392,4.107702,3.036733,4.538952
Fe1K1O6Se2,2.005793,3.086854,2.041525,3.086854
Fe1K1O8S2,1.959467,3.25723,1.959467,3.25723
Fe1K2Na1O3,2.540765,3.921885,2.540765,3.921885
Fe1K2O4,1.746152,3.249666,1.758942,3.264242
Fe1K2O7P2,3.3687370000000003,4.044327,3.599141,4.327984
Fe1K2P2S6,2.296876,2.99136,2.640616,3.588895
Fe1K2P2Se6,1.720765,2.563486,1.983812,2.857932
Fe1K3O2,1.423892,2.1653,2.33257,2.938988
Fe1K3O3,2.230643,3.586176,2.230643,3.586176
Fe1K3O4,0.344358,1.862136,0.344358,1.862136
Fe1K3Se3,1.416506,2.399019,1.493905,2.460143
Fe1La1Na1O6W1,1.6400359999999994,1.9333410000000004,1.756095,2.04084
Fe1La1O3,2.515792,3.663584,2.515792,3.663584
Fe1La2Li1O6,1.007969,2.014245,1.873568,2.812538
Fe1La2O2Se2,1.942695,2.827567,2.633992,3.72207
Fe1La3Mn1S7,0.809312,1.942612,1.6083,2.31996
Fe1La3Ni1S7,1.465651,2.438181,1.465651,2.438181
Fe1La3O6,2.7706859999999995,2.0144220000000006,2.892643,2.0144220000000006
Fe1La3O6S3W1,0.236474,0.79291,1.608165,2.536675
Fe1La4S7,0.02862999999999971,2.693485,0.046321,2.693485
Fe1Li1Mo2O8,2.467253,3.683816,2.682924,4.000079
Fe1Li1O10Se4,1.670781,2.656651,1.797158,2.791509
Fe1Li1O2,2.282359,3.4235599999999997,2.393594,3.564417
Fe1Li1O4Si1,2.741828,4.29951,2.922179,4.426674
Fe1Li1O6Se2,2.33547,3.632581,2.431389,3.706387
Fe1Li1O6Si2,2.699885,4.069965,2.782918,4.173788
Fe1Li1O7P2,2.41697,3.887658,2.474807,3.923896
Fe1Li1O8W2,2.224577,3.458067,2.340996,3.575699
Fe1Li1P1,0.123664,0.788065,1.151184,1.571271
Fe1Li2O4Si1,2.95115,3.69041,3.527779,4.129947
Fe1Li2S4Sn1,2.037466,2.697087,2.037466,2.697087
Fe1Li3Na2O4,2.843649,4.280291,2.843649,4.280291
Fe1Li4N2,1.160334,2.080558,2.135688,3.261563
Fe1Lu1O3,1.3143310000000001,2.571187,1.925433,3.321688
Fe1Mn2O6Sb1,1.144098,2.087835,1.632806,2.526281
Fe1Mo1O6Sr2,0.569786,1.515227,0.969312,2.266877
Fe1Mo1O7V1,2.252902,3.413017,2.419189,3.63246
Fe1Mo2Na1O8,2.159911,3.350885,2.316817,3.523198
Fe1Mo2O8Rb1,2.155969,3.622001,2.158635,3.625431
Fe1Mo2S4,0.359304,0.775908,0.359304,0.775908
Fe1N1,0.608463,0.888219,2.125027,2.409976
Fe1Na1O2,3.135168,4.601071,3.232943,4.680039
Fe1Na1O6Se2,1.948965,3.123676,2.159002,3.193293
Fe1Na1O6Si2,2.730376,4.106262,2.815324,4.193905
Fe1Na1O8S2,1.646629,2.990534,1.889925,2.990534
Fe1Na1O8Se2,1.695628,3.087123,2.121427,3.536307
Fe1Na1O8W2,2.344113,3.655155,2.471265,3.742887
Fe1Na2Ni2O12P3,1.547482,2.509166,1.597554,2.571505
Fe1Na2O4,1.424926,2.9151100000000003,1.812381,3.35221
Fe1Na3O12S3,2.036201,3.353768,2.036201,3.353768
Fe1Na3O3,2.38308,3.793055,3.005651,4.491906
Fe1Na3O8P2,2.195695,3.585817,2.195695,3.585817
Fe1Na3S3,1.654438,2.753939,1.768659,2.831963
Fe1Na3Se3,1.28759,2.278679,1.401293,2.378692
Fe1Na4O3,1.554716,2.549717,2.572804,3.536278
Fe1Na4O4,0.793253,2.103291,0.999522,2.322203
Fe1Nb1O4,2.250564,3.6648379999999996,2.363967,3.771442
Fe1Nb1Sb1,0.565351,1.227824,1.790632,2.518552
Fe1Nb2O6,1.925786,2.275378,2.092175,2.43126
Fe1Ni1O5P1,2.289072,3.437509,2.324547,3.478676
Fe1Ni2O12P3Sr1,2.015153,3.273853,2.117136,3.273853
Fe1O10P2Ti2,1.762075,2.276279,1.978348,2.453377
Fe1O13Te6,2.154699,2.45628,2.345706,2.682513
Fe1O24P6Ti4,2.189745,2.623593,2.329832,2.776336
Fe1O2Sr1,1.108591,2.144439,3.271191,4.429828
Fe1O2Tl1,0.7406000000000001,1.7014989999999999,1.081252,2.202631
Fe1O3Rb3,2.091654,3.420015,2.091654,3.420015
Fe1O3Sr2,1.860853,2.816618,3.192815,4.315657
Fe1O3Ti1,1.526812,1.925958,1.833943,2.29081
Fe1O3Y1,2.442591,3.591186,2.442591,3.591186
Fe1O3Zr1,2.3980110000000003,3.019368,2.630685,3.019368
Fe1O4P1,2.593414,4.018929,2.596596,4.018929
Fe1O4Sb2,1.687493,0.338167,1.792404,0.837206
Fe1O4V1,2.038266,3.520204,2.038266,3.520204
Fe1O4W1,1.90426,2.110922,2.175842,2.414756
Fe1O5Ti2,1.162689,1.616234,1.841335,2.312716
Fe1O6Sr2Ta1,1.76625,2.906471,2.438448,3.706203
Fe1O6Sr2W1,0.8563689999999999,2.4306019999999995,1.275966,3.204214
Fe1O6Ta2,2.153311,2.453532,2.394206,2.717019
Fe1O7Rb1Se2,1.991529,3.348228,2.039794,3.348228
Fe1O7Ti3,0.6200459999999994,0.824999,1.733295,2.077834
Fe1O8Rb1Se2,1.986282,3.361175,2.301178,3.689701
Fe1P1S3,0.565181,1.471473,0.660568,1.668406
Fe1P2,0.440765,1.844685,1.290286,2.454033
Fe1P4,1.123308,1.827933,1.691615,2.511542
Fe1P4Si4,1.247328,1.8705050000000005,2.132087,2.945156
Fe1Rb1S2,1.403894,2.4768,1.663486,2.713323
Fe1Rb1Se2,1.141452,2.084309,1.460145,2.357252
Fe1Rb3S3,1.278161,2.202172,1.278161,2.232308
Fe1S1,0.460351,1.194286,1.860269,2.812977
Fe1S2,0.460228,1.900951,1.619965,1.900951
Fe1S4V2,0.0,0.44832099999999997,0.0,1.028918
Fe1Sb1Te1,0.39992800000000095,0.8308230000000005,0.896078,1.63643
Fe1Se1,1.393155,2.21432,2.163123,2.983286
Fe1Se2,0.039027999999999174,1.2555959999999997,1.21132,1.2555959999999997
Fe1Te1,0.811947,1.092152,1.528623,1.092152
Fe1Te2,0.08514,1.140036,1.384216,2.050176
Fe2Ga1V1,0.0,1.131827,0.0,1.918474
Fe2Ga2S5,0.618372,0.787826,1.711802,0.787826
Fe2Ge1O4,0.959261,1.413311,2.846532,3.350214
Fe2H3O9P3,2.68603,4.094632,2.726568,4.120435
Fe2K2Nb4O13,1.262707,1.658465,1.262707,1.658465
Fe2K3Na1O8,1.581455,3.16958,1.889754,3.16958
Fe2K4O5,2.784794,4.148409,2.952674,4.423212
Fe2K6O5,1.715236,2.640353,1.715236,4.46491
Fe2Li3O12P3,2.317449,3.699959,2.325979,3.712984
Fe2Mg1O4,1.347576,2.521001,1.347576,2.521001
Fe2Mn1O4,1.073756,1.66233,1.073756,1.66233
Fe2Na2O1Se2,1.876228,2.78873,2.291945,3.113213
Fe2Na3O12P3,2.333311,3.760446,2.384103,3.822473
Fe2Ni1O4,1.133013,2.222574,1.133013,2.222574
Fe2O12S3,2.079787,3.537513,2.132084,3.565418
Fe2O12Se4Zn1,2.049098,3.184919,2.099645,3.271943
Fe2O14P4Pb1,2.407265,3.675504,2.407265,3.675504
Fe2O14P4Sr1,2.40139,3.770958,2.462503,3.881201
Fe2O1Se2Sr1,2.140428,2.851733,2.140428,3.064451
Fe2O3,1.004526,2.283818,1.004526,2.283818
Fe2O4Si1,2.566222,3.106546,3.211249,3.751255
Fe2O4Zn1,1.763231,2.864736,2.211902,3.411422
Fe2O5P1,1.613543,1.907567,1.766347,2.086527
Fe2O5Sr2,1.930811,3.375442,2.26352,3.422569
Fe2O5Sr3,1.3851929999999997,2.316447,2.630145,3.648066
Fe2O5Ti1,2.203026,3.4902879999999996,2.265472,3.528737
Fe2O6Sr3,1.791636,3.176485,2.44669,3.676671
Fe2O6Te1,1.573148,2.991315,2.041954,3.630988
Fe2O6W1,1.322748,2.534151,1.488509,2.605089
Fe2O7Rb8,1.405365,2.66171,2.509339,3.874207
Fe2Rb1Te3,0.4379400000000002,1.5079390000000001,0.707865,1.886918
Fe2Rb4S5,1.458286,2.518705,1.552468,2.625219
Fe2S3Tl1,1.143596,2.1201480000000004,1.716555,2.1201480000000004
Fe2S6Ta9,0.017445,0.248333,0.354908,0.564103
Fe2Sn1Ti1,0.106573,1.623335,0.144685,1.636266
Fe3H6K1O14S2,1.947413,3.228518,2.033763,3.260631
Fe3H6Na1O14S2,1.94908,3.23356,2.053412,3.272488
Fe3H9O15S2,2.0662719999999997,3.380891,2.205356,3.464307
Fe3Na1O12P3,0.460895,1.095114,0.612914,1.146176
Fe3Na1O12V3,0.993129,1.16288,1.109247,1.315903
Fe3Na1O5,1.078614,2.352697,1.476669,2.576264
Fe3Na7O8,2.20513,3.713291,2.483659,4.004297
Fe3O12P3Sr1,0.988802,1.163161,1.139761,1.247022
Fe3O4,0.0,1.300365,0.0,1.343849
Fe3O6Rb5,2.04357,2.77668,2.04357,2.77668
Fe3O7P1,2.288524,3.6706330000000005,2.339572,3.6706330000000005
Fe3S4,0.045122,0.969277,0.624605,1.318074
Fe4Mg3O24V6,2.234498,3.418229,2.38575,3.607161
Fe4Mn3O24V6,1.533489,2.217037,1.598041,2.217037
Fe4Ni3O24P6,2.050198,3.396976,2.070091,3.414198
Fe4O11Sr4,0.1206590000000003,1.2825860000000002,1.217543,1.2825860000000002
Fe4O24V6Zn3,2.196489,3.297063,2.336953,3.476901
Fe4O5,0.492419,0.555422,0.68584,0.911132
Fe7Na1O24P6,0.517394,1.10919,1.023645,1.393718
Ga1Ge1N1Sr2,0.032622,0.527229,0.710496,1.329543
Ga1Ge1Te1,0.054852,0.647722,0.054852,0.647722
Ga1Ge2Na1O6,2.440582,4.153417,4.636042,6.554716
Ga1Ge2Na5,0.0,0.30977600000000005,0.0,1.59479
Ga1H1O4Se1,3.9211470000000004,5.365842,4.036537,5.52382
Ga1H4Na1,4.605957,5.7579899999999995,5.109384,6.218962
Ga1H6O18P6Rb3,0.47657499999999997,1.10836,0.568448,1.10836
Ga1H8Li1N4,2.883881,4.301982000000001,2.883881,4.301982000000001
Ga1I3,2.302426,3.291338,2.39412,3.394505
Ga1I3Li1,2.247004,3.110327,2.605021,3.494872
Ga1I4K1,2.570916,3.591219,2.624888,3.646993
Ga1I4Li1,2.4824,3.467446,2.542659,3.52595
Ga1I4Tl1,2.513702,3.51481,2.604276,3.611615
Ga1I7Te1,1.825508,2.573567,1.99028,2.739045
Ga1In1O3,1.211932,2.800899,4.810379,6.4551
Ga1In1O5Zn2,1.753639,2.851566,5.800774,2.851566
Ga1In1O7Zn4,1.650801,2.610548,1.650801,2.610548
Ga1In1S3,1.633933,2.571172,3.449788,4.512618
Ga1In1Se2,0.0,0.261163,0.0,2.104664
Ga1In1Te2,0.0,0.282387,0.0,1.547813
Ga1K1Na2O3,2.480892,4.012121,2.480892,4.012121
Ga1K1S2,2.557671,3.662228,2.557671,3.662228
Ga1K1Sb4,0.193556,0.621721,0.193556,0.621721
Ga1K1Se2,1.7190340000000002,2.702737,2.265897,3.252953
Ga1K1Te2,1.254641,2.013284,1.254641,2.013284
Ga1K2Na1P2,1.368141,2.093011,1.80756,2.093011
Ga1K2P2,1.206801,1.850281,1.624863,2.225867
Ga1K2Sb2,1.102997,1.629272,1.45429,1.988591
Ga1K3S3,2.733597,3.790501,3.507142,4.636358
Ga1K3Se3,2.105385,3.060028,2.809621,3.804502
Ga1K3Te3,1.571643,2.335446,1.852596,2.643042
Ga1K6Na3Sb4,0.681033,1.218494,1.653206,2.185595
Ga1La1O1S2,2.008808,3.135163,2.540955,3.621449
Ga1La1O1Se2,1.381248,2.212985,1.888372,2.787832
Ga1La2N3,1.813225,2.687503,2.431517,3.493549
Ga1La3Mn1S7,1.987875,2.924203,2.366735,3.480215
Ga1La3O1S5,1.153778,1.96856,1.153778,1.96856
Ga1Li1N2Sr1,1.828272,2.92697,1.828272,2.92697
Ga1Li1S2,2.976014,4.075446,2.976014,4.075446
Ga1Li1Se2,2.098381,3.041588,2.098381,3.041588
Ga1Li1Si1,0.214148,0.623308,1.740486,2.231952
Ga1Li1Te2,1.614331,2.313335,1.614331,2.313335
Ga1Li5O2,0.47945400000000005,0.75324,1.014734,1.304067
Ga1Mn1O5Sr2,0.202712,2.350382,1.684714,4.919273
Ga1N1,0.535662,1.672867,9.174933,10.756048
Ga1N3Sr3,0.555318,1.405833,2.129913,3.069162
Ga1N5O14,1.15929,3.255514,1.168762,3.255514
Ga1N5Sr6,0.265735,1.157553,0.265735,1.157553
Ga1Na1O2,2.763505,4.383232,5.123431,4.383232
Ga1Na1Te2,0.132372,0.754238,2.350512,3.147475
Ga1Na3P4Sr3,0.75403,1.388568,0.75403,1.388568
Ga1Na3S3,2.80582,3.910961,3.702511,4.821674
Ga1Na3Se3,2.100497,3.102034,2.987229,3.968785
Ga1O2Tl1,2.034876,3.194661,3.021955,4.219202
Ga1O3Y1,2.81212,4.40465,2.81212,6.626244
Ga1O5Sc1Sr2,2.627375,4.19703,3.864983,5.686348
Ga1O6Sb1Sr2,0.673786,2.282299,0.673786,2.282299
Ga1P1,1.542517,2.428519,1.542517,2.428519
Ga1P1S4,2.210281,3.36072,2.210281,3.36072
Ga1Rb1S2,2.503325,3.602551,2.503325,3.602551
Ga1Rb2Sb2,1.030311,1.536588,1.427312,1.957491
Ga1S1,1.524493,2.459878,1.524493,2.459878
Ga1S2Tl1,1.727482,2.420977,1.901243,2.595051
Ga1S6Y3,2.093026,3.079975,2.546627,3.576717
Ga1S8V4,0.708785,1.266793,0.846262,1.411809
Ga1Sb1,0.0,0.407301,0.0,0.407301
Ga1Se1,0.838272,1.661536,0.838272,1.661536
Ga1Se2Tl1,0.539855,1.076758,0.539855,1.076758
Ga1Se8V4,0.260102,0.688478,0.649531,1.097808
Ga1Te1,1.234371,1.875982,1.328787,1.966271
Ga1Te2Tl1,0.493429,1.056088,1.400353,2.015797
Ga2Ge1La2S8,1.7367899999999996,2.72239,2.530002,3.564505
Ga2Ge1Li2S6,2.490097,3.545917,2.845941,3.95502
Ga2Ge1Na2S6,2.594606,3.701778,2.594606,3.701778
Ga2Ge1S6Sn1,1.163754,2.122641,1.163754,2.122641
Ga2Ge4O14Pb3,2.150192,3.375099,3.431382,4.802406
Ga2Hg1S4,1.586146,2.574687,1.586146,2.574687
Ga2Hg1Se4,0.895809,1.71995,0.895809,1.71995
Ga2Hg1Te4,0.636738,1.269376,0.636738,1.269376
Ga2I3,2.109163,2.916242,2.202518,3.021774
Ga2I4,1.489774,1.978163,1.655074,2.154146
Ga2I8Pd1,1.412677,2.303506,2.254602,3.251662
Ga2In6O8Pt1,0.613842,1.503397,3.128281,4.296183
Ga2K6O6,2.490021,3.952234,2.490021,3.952234
Ga2La2O1S6Zn1,2.635314,3.609401,2.635314,3.609401
Ga2Mn1S4,2.178456,3.158145,2.178456,3.158145
Ga2Mn1Se4,0.680265,1.503428,0.680265,1.503428
Ga2Mn1Te4,0.282737,0.8075,0.746345,1.271364
Ga2Mn2S5,0.332877,1.011987,1.555662,2.231008
Ga2N4Sr3,1.587823,2.647092,1.587823,2.647092
Ga2Ni1S4,1.023371,1.816856,2.171557,2.960558
Ga2O3,2.350805,4.011889,6.025232,7.900532
Ga2O4Pb1,3.292011,4.493931,4.068424,5.235442
Ga2O4Zn1,2.715578,4.134884,6.825566,8.553872
Ga2O6Rb6,2.281011,3.717256,2.281011,3.717256
Ga2O6Te1,0.692804,2.301586,0.692804,2.301586
Ga2Os1,0.719911,1.285421,3.144846,3.904114
Ga2P4Sr3,1.068828,1.722367,1.294385,1.928866
Ga2Pb1Se4,1.703184,2.520907,2.329304,3.161304
Ga2Rh2Sr1,0.026575,0.04187,0.714254,0.04187
Ga2Ru1,0.106831,0.58802,2.415328,2.991972
Ga2S2Te1,2.032528,2.918942,2.806945,3.698387
Ga2S3,1.74814,2.828729,2.198782,3.267457
Ga2S4Sr1,2.666044,3.740637,3.626004,4.726544
Ga2S4Zn1,1.984754,3.005376,1.984754,3.005376
Ga2S5Sn2,1.580073,2.185774,2.048231,2.676465
Ga2Se2Te1,1.663021,2.47874,1.788817,2.623014
Ga2Se3,1.015566,1.899787,1.015566,1.899787
Ga2Se4Sr1,1.770889,2.675358,2.906796,3.862058
Ga2Se4Zn1,1.50757,2.339165,1.50757,2.339165
Ga2Sr1Te4,0.457337,1.090071,2.322507,3.052537
Ga2Te4Zn1,1.085868,1.720997,1.085868,1.720997
Ga2Te5,0.933836,1.518542,1.920837,2.510482
Ga3H6K1O14Se2,2.850072,4.800452,4.110233,6.217089
Ga3H6Na1O14Se2,2.825666,4.768834,4.194876,6.303132
Ga3H6O14Rb1Se2,2.830697,4.776765,4.068743,6.166012
Ga3I1Te3,1.331384,2.099611,1.331384,2.099611
Ga3In1Te5,0.37113200000000024,0.8222410000000004,0.442662,0.889393
Ga3Ir1,0.032617,0.032062,0.574411,0.689422
Ga3K1,0.19796999999999998,0.553,0.727093,1.079511
Ga3N5Sr3,1.352825,2.383572,1.352825,2.383572
Ga3Na2Sb3,0.195387,0.662247,0.484145,1.066644
Ga3O7P1,2.962816,4.790117,2.962816,4.790117
Ga3Os1,0.684609,1.173723,1.053979,1.59582
Ga3Rb1,0.149911,0.486483,0.689166,1.024884
Ga3Rb1S5,2.520462,3.606161,2.520462,3.606161