material formula,Band_gap_GGA,Band_gap_HSE,Band_gap_GGA_optical,Band_gap_HSE_optical
Na2O11Si4Ti1,2.661257,4.045786,2.672389,4.055567
Na2O13Ti6,2.763907,4.210761,2.824063,4.210761
Na2O13W4,1.417581,2.518658,3.892174,5.262619
Na2O19Ti9,2.071283,3.442733,2.420395,3.865914
Na2O1S2Ti1,2.43273,3.521457,2.469538,3.559989
Na2O2,1.741918,3.771928,4.431546,7.165246
Na2O2Pb1,2.398224,3.328926,2.549409,3.399291
Na2O2Pt1,1.578662,3.279452,4.035476,5.650728
Na2O2Zn1,2.178128,3.237938,2.178128,3.237938
Na2O3Pt1,1.622308,3.115977,2.112933,3.667636
Na2O3Ru1,0.0,0.42973,0.0,0.42973
Na2O3Zn2,2.026575,2.976191,2.026575,2.976191
Na2O4Os1,0.231135,1.631521,0.473559,1.88376
Na2O4Pd3,0.391848,1.951366,1.272902,2.960873
Na2O4S2,2.311255,3.299174,2.331278,3.314768
Na2O4Te1,1.832447,3.335066,1.832447,3.335066
Na2O5Si1Ti1,2.895316,4.645248,3.236167,5.024218
Na2O5Te2,2.814343,3.90606,3.099391,4.188031
Na2O6Sn1Te1,1.36898,2.579238,1.36898,2.579238
Na2O7P2Pd1,1.623302,3.611153,1.973034,3.964181
Na2O7Se2,2.787809,4.679473,3.753658,5.70978
Na2O7Te2,0.738316,2.139119,2.427414,4.015175
Na2O7Ti3,2.808639,4.313983,2.861693,4.394682
Na2O7W2,2.220656,3.407668,3.743474,5.109036
Na2O8P2V1,2.67304,4.044376,2.67304,4.044376
Na2O8Pd1Se2,1.713706,3.643128,1.713706,3.643128
Na2O9Te3Zn2,3.026014,4.235667,3.606007,4.855688
Na2O9Te4,2.622832,3.702733,3.317707,4.496643
Na2P1S3,2.648303,3.76389,3.359449,4.503363
Na2P1Se3,1.72607,2.725016,2.879817,3.919571
Na2Pd1S2,0.959963,1.998986,2.436493,3.582211
Na2Pd1Se2,0.674871,1.504533,2.327391,3.261639
Na2Pt1S2,1.153699,2.22559,2.772139,3.976303
Na2Pt1Se2,0.866458,1.775489,2.665739,3.700269
Na2S1,2.514301,3.494743,2.514301,3.494743
Na2S2,1.212349,2.325755,1.212349,2.325755
Na2S2Zn1,2.727241,3.577411,2.727241,3.577411
Na2S3Te1,1.476991,2.183082,1.834124,2.566486
Na2S4,1.950744,3.059396,2.311984,3.465396
Na2S5,1.685505,2.754476,1.685505,2.754476
Na2S6Sn2Zn1,1.797627,2.753277,2.360723,2.753277
Na2Se1,2.073629,2.972606,2.073629,2.972606
Na2Se2,0.439503,1.371964,0.439503,1.371964
Na2Se3Sn1,1.293477,2.153488,1.293477,2.153488
Na2Se3Te1,0.936547,1.531078,1.320075,1.956423
Na2Se3Zr1,0.0,2.198258,0.0,2.805954
Na2Se4,0.67217,1.105765,0.914843,1.383672
Na2Se5Si2,2.416062,3.415516,2.865566,3.826567
Na2Te1,2.061883,2.806577,2.061883,2.806577
Na2Te2,0.508962,0.957569,0.747531,1.242181
Na3O12S3V1,0.237444,0.167221,0.239081,0.167221
Na3O1P1S3,2.998872,4.160919,2.998872,4.160919
Na3O1S3V1,1.996172,2.709652,2.164699,2.917707
Na3O2Tl1,1.905372,2.697259,2.367992,3.213362
Na3O4Rb1Sn1,2.279112,3.840584,3.346043,4.94331
Na3O4Ru1,0.545719,2.516003,0.732237,2.677728
Na3O4Sb1,2.229538,3.823512,2.229538,3.823512
Na3O5Os1,0.142312,1.69178,0.27115,1.786968
Na3O5Re1,2.423905,3.736535,2.558548,3.869044
Na3P1,0.439793,1.049096,0.439793,1.049096
Na3P11,1.750059,2.537937,1.750059,2.537937
Na3P1S4,2.191023,3.291168,2.191023,3.291168
Na3P1Se4,1.135586,2.07499,1.135586,2.07499
Na3S3Sb1,2.369102,3.11912,2.593144,3.41156
Na3Sb1,0.401783,0.967728,0.401783,0.967728
Na3Sb1Se3,1.949242,2.615463,2.091735,2.824067
Na3Sb1Se4,0.918427,1.809189,0.918427,1.809189
Na3Sb1Te3,1.419953,2.017894,1.44684,2.04553
Na3Si1Te3,1.853772,2.633723,2.289209,3.092861
Na4O12Ti5,2.396342,3.813596,3.034697,4.457429
Na4O3Sn1,1.898321,2.676136,2.849392,3.743799
Na4O4Pb1,1.244746,2.620437,1.244746,2.620437
Na4O4Sn1,2.112099,3.660999,4.27029,3.660999
Na4O5Se1,1.362327,3.109219,2.407348,4.299564
Na4O5Te1,2.030695,3.601337,3.628851,5.321206
Na4S4Sn1,2.076056,3.110429,2.076056,3.110429
Na4S8Sn3,1.712652,2.673446,2.363164,3.347578
Na4Se4Si1,2.185924,3.153892,2.185924,3.153892
Na4Se4Sn1,1.464584,2.367136,1.464584,2.367136
Na4Sn1Te4,0.879257,1.57358,0.879257,1.57358
Na5Nb1O5,2.801517,4.254138,3.646406,5.125181
Na5O5Ta1,2.597108,4.058076,2.597108,4.058076
Na5O6Re1,2.294137,3.467592,2.610388,3.81519
Na5P3Si1,1.341458,2.057257,2.029204,2.806621
Na5P3Sn1,0.993523,1.674998,0.993523,1.674998
Na5Sn3Tl1,0.027136,0.304771,0.2825,0.541495
Na6O4Zn1,2.002129,3.222763,2.002129,3.222763
Na6O5Pb1,1.078758,2.444038,1.078758,6.052239
Na6P4Pb3S16,2.300381,3.254924,2.414438,3.403188
Na6P4W1,1.282019,1.856023,1.344796,1.921173
Na6S4Zn1,2.375948,3.2804,2.375948,3.2804
Na6S7Sn2,2.081965,3.108551,2.081965,3.108551
Na6Se7Si2,2.17131,3.152018,2.944789,3.939579
Na6Se7Sn2,1.408309,2.279059,1.408309,2.279059
Na8Sb4Sn1,0.262277,0.781563,0.907452,1.457649
Nb1O2,0.222155,1.202988,0.877647,1.891899
Nb1O4Sb1,2.369434,3.376026,2.610514,3.606351
Nb1O5P1,2.270336,3.612592,2.337266,3.678447
Nb1O8Rb3,2.674207,4.421017,3.4416,5.804087
Nb1Rb3S4,2.448348,3.409682,2.448348,3.409682
Nb1Ru1Sb1,0.388741,1.028657,1.884429,2.560054
Nb1S3,0.276452,1.075885,1.478444,2.345161
Nb1S4Tl3,2.405025,3.224964,2.405025,3.224964
Nb1Se4Tl3,1.977195,2.711083,1.977195,2.711083
Nb2Ni4O9,0.243897,3.574819,0.355442,3.653483
Nb2O11Te3,2.411379,3.536008,2.411379,3.536008
Nb2O13Se4,2.416949,3.573578,2.639889,3.814852
Nb2O5,2.416789,3.784617,3.093747,4.509421
Nb2O6Pb1,2.528332,3.746882,3.048442,4.279886
Nb2O6Sn1,1.574683,2.306974,1.774737,2.518205
Nb2O6Sr1,2.957858,4.322864,3.050999,4.431631
Nb2O7Sn2,0.84489,1.459686,1.079609,1.716181
Nb2O7Sr2,2.700531,4.071448,4.075091,5.585234
Nb2O8Zn3,3.235872,4.451213,3.559013,4.762311
Nb2O9Zn4,2.91497,4.073163,2.91497,4.073163
Nb2P1Rb1S10,1.517874,2.488448,1.5515,2.516527
Nb2P1Rb1Se10,0.831911,1.709614,1.012641,1.863032
Nb2P1S10Tl1,1.284822,2.159402,1.6229,2.550595
Nb2P2Rb2S11,1.113318,2.106312,1.122983,2.114826
Nb2Pd3Se8,0.522386,0.993409,0.759947,1.230395
Nb2S11Tl4,0.422507,0.770847,0.503629,0.845648
Nb2Se11Tl4,0.011377,0.079318,0.053525,0.142889
Nb2Se9,0.605428,1.332653,1.170089,2.01625
Nb2Si1Te4,0.21019,0.458029,0.712011,0.997158
Nb3O10Rb1Sr2,1.424272,2.697837,4.488752,6.075422
Nb3O6Ti1,0.505535,1.520559,0.911098,2.115708
Nb3Sb2Te5,0.843456,1.2556,1.154809,1.633209
Nb6O16Sr1,1.625657,2.903403,2.683877,4.074879
Nb9O25P1,2.096342,3.446564,3.115952,4.539292
Ne,11.635997,14.425131,11.635997,14.425131
Ni1O1,3.430363,4.533037,4.101486,5.032451
Ni1O10P2Ti2,2.790435,4.174727,2.956169,4.324066
Ni1O10Te2V2,1.872495,2.613372,2.220048,2.998717
Ni1O11P4,4.604113,5.622287,4.604113,5.622287
Ni1O13Te6,1.981602,4.034867,2.028528,4.184891
Ni1O2,1.495711,2.798005,2.38968,3.750614
Ni1O2Rb2,2.882242,4.005094,3.050134,4.241729
Ni1O2Rb3,1.487818,2.503952,2.492858,2.503952
Ni1O3Se1,3.2321619999999998,4.259868,3.56076,4.603313
Ni1O3Ti1,2.922058,3.973109,3.207951,4.308371
Ni1O3Tl1,0.655541,1.048111,1.174972,2.209732
Ni1O4Sb2,2.038848,2.767912,2.560111,3.288506
Ni1O4Se1,2.392874,4.030512,3.552661,5.306501
Ni1O4W1,2.830823,3.73488,3.174412,3.73488
Ni1O6Pb1Sr3,0.89048,1.767481,2.087207,3.045296
Ni1O6Pt1Sr3,2.558197,4.08449,2.623578,4.159168
Ni1O6Sb2,1.090984,2.856266,1.090984,2.856266
Ni1O6Sr2Te1,1.639572,3.016055,1.639572,3.016055
Ni1O6Ta2,2.807796,4.143276,2.922686,4.262843
Ni1O6V2,2.075648,2.873378,2.332195,3.114092
Ni1O8Re2,3.839635,4.754414,3.854423,4.950567
Ni1P1S3,1.453295,2.122605,1.965083,2.720742
Ni1P1Sc1,0.0,0.042367,0.0,0.78029
Ni1P1Se3,1.055241,1.673204,1.470305,2.229204
Ni1P2,0.556831,1.378865,1.102318,2.044725
Ni1P4Si3,0.356806,0.902012,0.768235,1.358961
Ni1S1,0.637571,0.83408,1.865585,2.089456
Ni1S1Sb1,0.0,0.08682,0.0,1.312622
Ni1S2,0.742029,1.255728,0.743392,1.25684
Ni1S5Ta2,0.0,0.118392,0.0,0.118392
Ni1Sb1Sc1,0.0,0.404521,0.0,1.904751
Ni1Sb1Y1,0.290998,0.457203,1.346426,1.54636
Ni1Se1,0.761693,1.402305,1.660827,2.49708
Ni1Se2,0.5514060000000001,1.0244899999999992,0.828709,1.313022
Ni1Se4V2,0.027235,0.480888,0.549096,1.052002
Ni1Se5Ta2,0.054228,0.409567,0.054228,0.409567
Ni2O6Sb1Sc1,2.754049,3.8371819999999994,3.781364,3.8371819999999994
Ni2O8Te3,3.2264189999999995,4.193443,3.2264189999999995,4.528127
Ni3O6Te1,2.043764,2.97245,4.132594,5.012175
Ni3Rb2S4,1.474848,2.239208,2.047366,2.880943
Ni3Rb2Se4,1.118042,1.788288,1.531653,2.254736
Ni3S8Ta2,0.483763,0.969438,1.357624,2.009276
Ni3Sb4Zr3,0.213671,0.638522,0.731363,1.187532
Ni3Se8Ta2,0.329939,0.79886,1.142915,1.686018
Ni4O8Sr1,0.43991,1.383627,1.229914,2.286345
O,1.171963,3.055153,1.171963,3.055153
O10P2Sn5,2.745702,3.636501,2.745702,3.636501
O10P2Sr1V2,1.687425,2.784606,1.966617,3.135861
O10P4,5.548347,7.473315,6.527531,8.545402
O10Ru3Sr2,0.0,0.049967,0.0,0.439048
O10Sr4Ti3,1.729746,3.109696,3.797506,5.381731
O11Pb1Pt4Sr4,0.571879,1.818923,1.148309,2.42892
O11Pb2Se2V2,2.371916,3.30369,2.5257,3.470902
O11Se2V2,2.087636,3.238905,2.238627,3.374339
O11Ti6,0.0,0.311223,0.0,0.311223
O11V6,0.45861,1.170159,0.585243,1.344251
O12P1Rb1S2Sb2,4.14415,5.473510999999999,4.412909,5.793167
O12P3Rb1Ti2,2.460872,3.979197,2.558398,4.089177
O12Rb1Se2V3,2.324527,3.475582,2.440867,3.58002
O12Rb2Sr1V4,2.60079,3.934042,2.719947,4.073231
O12Rb2Te1W3,2.693835,3.801153,2.696647,3.801153
O12Re1Sc6,0.054848,1.518209,0.350412,1.859889
O12S3Sc2,4.35086,6.455749,4.396371,6.515075
O12Se2Tl1V3,2.384772,3.484064,2.53166,3.608728
O12Se4,2.417204,4.149874,2.417204,4.149874
O12Si6,5.752512,7.549531,6.827134,8.679237
O12Te1Y6,2.784504,4.258548,5.29781,6.994857
O12W1Y6,2.928595,4.228881,3.163712,4.466009
O13Rb2Ti6,2.472991,3.900765,2.857197,4.302731
O13Re2S2,2.388664,3.700692,2.443387,3.779858
O13Re2Sb4,2.624,3.565004,2.736347,3.697751
O13Sc2Te5,2.939153,4.146912,3.257955,4.481873
O13Te5Y2,3.006424,4.157607,3.271479,4.435364
O13Te6Zn1,3.018439,4.172314,3.189304,4.34959
O13Ti7,0.0,0.016135,0.0,0.016135
O13V6,1.139369,2.031584,1.365546,2.287216
O13V7,0.087247,0.355803,0.547342,0.964915
O14Os3Sn15,1.532766,2.324059,2.293534,3.060475
O14P2Sr3Te1Zn3,3.383769,4.785627,6.525978,8.08391
O14P4Pb1V2,1.909462,3.01933,1.985913,3.089167
O14P4Sr1V2,2.068997,3.15315,2.068997,3.15315
O14Pb3Te1V2Zn3,3.1681810000000006,4.28463,3.510913,4.440282
O14Pt1Si2Sr8,2.285957,3.858115,2.937284,4.573683
O14Rb3V5,2.256686,3.210461,2.589484,3.55759
O14Ru3Sn15,1.4224110000000003,2.168468,2.012893,2.750203
O14Tl3V5,2.065266,2.766019,2.07967,2.782298
O18Ti10,0.0,0.449805,0.0,0.449805
O1P1Y1Zn1,1.41729,2.061774,2.255966,2.317296
O1P2Sr4,1.175272,1.905751,1.938374,2.748355
O1Pb1,1.413958,2.169148,4.900552,5.850094
O1Pb1Sr3,0.033388,0.186794,0.033388,0.222992
O1Pd1,0.0,0.82209,0.0,0.82209
O1Pt1,0.0,1.149829,0.0,3.445456
O1Rb2,1.279887,2.448506,5.132671,6.534431
O1S1Zr1,2.458973,3.553154,3.091118,4.289236
O1S2Sb2,1.223337,1.939616,1.223337,1.939616
O1S2Y2,2.54845,3.585359,3.062278,4.158378
O1S8,2.41559,3.440001,2.41559,3.440001
O1Si1Sr3,0.39133,0.856724,0.39133,0.856724
O1Sn1,0.114246,0.522754,4.171851,4.868343
O1Sn1Sr3,0.0,0.205003,0.0,0.205003
O1Sr1,3.280869,4.770824,6.152483,7.826863
O1Tl2,0.4721,1.158718,0.4721,1.158718
O1V1,1.733202,2.598508,3.806853,4.383359
O1Zn1,0.0,1.205692,0.0,13.085642
O20P4Sn10,2.755168,3.646314,2.755168,3.646314
O21Tl2V8,1.267989,1.940156,2.295196,3.256716
O22Si4Sr4Ti5,1.774272,3.197498,1.774272,3.197498
O24P6Pb1Ti4,2.628962,4.185134,2.680781,4.239585
O24P6Sr1Ti4,2.592005,4.122965,2.610996,4.139537
O24P6V4Zn3,1.822906,2.93206,1.930025,3.051773
O25Ta9V1,2.5190289999999997,3.716186,3.158164,4.270793
O26Pd1Rb2S8,1.693875,3.666611,4.330522,3.666611
O2Os1,0.218449,0.6483,2.070816,2.747289
O2Pb1,0.025645,0.627156,0.086189,0.627156
O2Pb1Pd1,0.0,0.849439,0.0,1.21401
O2Pb1Rb2,1.872449,2.714658,1.872449,2.714658
O2Pd1,0.0,0.728365,0.0,2.811067
O2Pt1,0.0,1.114146,0.0,1.997578
O2Rb1Sb1,2.227026,3.203995,3.524954,4.624616
O2Rb1Tl1,0.814745,1.770374,4.849193,6.236102
O2Rb2,1.714362,3.271504,2.939221,4.891096
O2Rb2Sn1,2.302719,3.143483,2.410536,3.143483
O2Rb2Zn1,1.719774,2.738694,2.902379,3.94739
O2Rh1,0.0,0.164927,0.0,0.164927
O2Ru1,0.723568,2.355914,2.433924,4.196873
O2S1,1.764576,3.042526,2.411771,3.698952
O2S1Sc2,2.056035,3.300368,2.783056,3.992256
O2Sb1,1.859634,2.897841,2.131583,3.135515
O2Sb2Se3Sr2,0.690296,1.1066030000000002,0.690296,1.1066030000000002
O2Se1,3.256344,4.658688,3.794304,5.220806
O2Si1,4.011242,5.964699,4.011242,5.964699
O2Sn1,0.572525,2.011987,3.712128,5.421397
O2Sr1,2.870267,4.77055,3.373115,4.77055
O2Sr1Zn1,2.710402,3.848728,2.710402,3.848728
O2Te1,2.840311,3.991113,3.521697,4.725226
O2Ti1,1.895032,3.278111,3.057671,4.587428
O2V1,0.773545,1.510221,1.105572,1.899743
O2W1,0.503305,1.374001,0.888106,1.726675
O2Zn1,2.76964,4.365551,3.547249,5.414961
O2Zr1,3.309237,4.932145,4.653635,6.428431
O3Pb1Rb2,1.289731,2.633998,2.002704,3.384444
O3Pb1Se1,2.839016,3.962774,3.513932,3.962774
O3Pb1Sr1,0.780468,1.330101,2.623594,1.330101
O3Pb1Te1,2.635923,3.714481,3.473161,4.629243
O3Pb1Ti1,1.535525,2.584444,2.757823,3.810551
O3Pb1V1,0.92786,2.283045,1.247877,2.283045
O3Pb1Zn1,0.340463,0.82674,0.340463,0.82674
O3Pb1Zr1,2.311379,3.477219,4.33064,3.477219
O3Pb2,0.0,0.015323,0.0,1.174958
O3Pd1Se1,1.006276,2.684066,2.100698,3.976718
O3Pd1Sr2,0.291001,1.98848,5.043399,6.854319
O3Rb1,0.0,2.30275,0.0,2.451522
O3Rb1Re1S1,2.72609,3.748114,2.8694,3.883058
O3Rb2,0.0,1.297983,0.0,1.309972
O3Rb2Sn2,1.059869,1.742138,1.059869,1.742138
O3Rh1Sc1,1.082735,2.764603,1.320126,2.946778
O3Rh2,1.604243,2.444185,1.854435,2.686944
O3Ru1Sr1,0.0,0.401209,0.0,1.178163
O3S1,5.15071,7.090854,5.747171,7.757716
O3Sb1Tl1,2.389706,3.304092,2.47965,3.46122
O3Sb2,3.162863,4.199028,4.011331,5.129452
O3Sc2,3.831509,5.635238,3.831509,5.635238
O3Si1Sr1,2.478925,4.275697,6.563301,8.46528
O3Si2,2.34807,3.401847,3.870144,5.045971
O3Sn1Sr1,0.969035,2.577727,5.367263,7.1088
O3Sn1Ti1,0.990966,1.899045,1.946827,2.847888
O3Sn1Tl2,1.190389,1.941554,1.70509,2.323349
O3Sn1Zn1,1.760473,3.085036,5.382734,6.982226
O3Sr1Tc1,0.583472,2.615565,0.725968,2.615565
O3Sr1Ti1,1.74343,3.094581,4.273229,5.940966
O3Te1,1.153393,2.344779,5.009563,6.86488
O3Ti1Tl2,2.245119,3.12575,2.792938,3.708885
O3Ti1Y1,0.0,0.704067,0.0,1.34584
O3Ti1Zn1,2.844583,4.408661,3.140297,4.717316
O3Ti2,0.0,0.099596,0.0,0.099596
O3Tl1V1,2.897956,3.831944,2.941683,3.906444
O3Tl2,0.0,1.408947,0.0,1.408947
O3Tl4,0.575768,1.165648,1.867862,2.653479
O3V1Y1,1.64674,2.581692,1.64674,2.581692
O3V2,0.0,1.994282,0.0,2.217264
O3W1,0.464942,1.420132,5.190006,6.715296
O3Xe1,1.346198,2.837975,2.135634,3.870631
O3Y2,4.118753,5.607923,4.74415,6.330851
O44Sn10W16,1.506324,2.327236,1.614261,2.377067
O48Si24,5.732728,7.503491,7.282832,9.116887
O4Os1,3.365144,4.548798,3.90511,5.151763
O4P1Rh1,1.102514,2.986167,1.268074,3.144926
O4P1Sb1,3.992089,5.255107,4.650277,5.976845
O4P1Tl1,0.438061,1.897664,2.541723,4.10969
O4P1Tl3,2.669027,3.626665,3.800637,4.818925
O4P1V1,1.847932,2.998589,1.978931,3.137447
O4Pb1Sr2,1.344467,2.311968,3.287964,4.575812
O4Pb1W1,2.963973,4.024318,3.646716,4.761052
O4Pb2Pt1,0.0,0.786542,0.0,1.019768
O4Pb2Sn1,2.060232,3.067772,2.62163,3.519788
O4Pb3,1.084043,1.916113,1.896983,2.820343
O4Pd1S1,1.171587,3.115511,1.671887,3.593262
O4Pd1Se1,1.258374,3.06127,1.743015,3.53432
O4Pd3Sr1,0.0,0.272722,0.0,0.272722
O4Pd3Tl1,1.164549,2.635832,1.683287,2.800429
O4Rb2Ru1,0.52757,2.461844,0.52757,2.461844
O4Rb2Zn3,2.265587,3.239417,2.265587,3.239417
O4Rb4Sn1,2.090259,3.551723,3.88076,5.436063
O4Rh2Zn1,0.910207,2.869078,0.935619,2.875107
O4Ru1,2.644026,3.755139,2.644026,3.755139
O4S1Sn1,2.634574,3.858736,3.028267,4.500894
O4Sb1Ta1,2.878254,3.949102,3.303613,4.424177
O4Sb1V1,0.499622,1.654853,2.237854,3.343129
O4Sb2,0.413201,1.142262,0.613372,1.399929
O4Sb2Zn1,2.501461,3.461541,2.859312,3.822194
O4Sc1V1,2.688828,3.806658,2.688828,3.806658
O4Se1Te1,2.893093,4.044252999999999,3.225883,4.381375
O4Se1V1,2.155012,3.362052,2.291896,3.529441
O4Si1Zn2,3.542993,4.955299,3.542993,4.955299
O4Sn1Sr2,2.615763,4.150921,5.366609,7.171975
O4Sn1W1,0.815647,1.409277,1.216575,1.851036
O4Sn2Ti1,0.919749,1.760334,1.066057,1.924939
O4Sn3,0.0,0.357775,0.0,1.081915
O4Sr1Te1,2.248129,3.777146,2.583361,4.115835
O4Sr1Tl2,0.165199,1.030737,1.908959,1.030737
O4Sr2Ti1,1.858912,3.226257,4.155175,5.773844
O4Ta1Y1,2.954389,4.379073,3.146012,4.583307
O4Te1V1,1.342607,2.278824,2.614248,3.856673
O4Ti1Zn2,2.488598,3.664957,2.488598,3.664957
O4Tl2W1,2.73956,3.655414,3.541095,4.540019
O4Tl3V1,2.426454,3.30148,3.024177,3.980957
O4V1Y1,2.8422220000000005,3.947204,2.8422220000000005,3.947204
O5P1Rb1V1,2.773497,4.08222,2.819601,4.137695
O5P1Sn1V1,0.856844,1.668625,1.094425,1.931684
O5P1Ta1,3.7899640000000003,5.308282,4.233677,5.792365
O5P1V1,1.770671,2.78752,2.264375,3.330715
O5P2,5.547949,7.473458,6.528499,8.546696
O5Pb2Te1,2.008376,3.128387,2.47825,3.637672
O5Pb2W1,2.766158,3.750211,3.574312,4.595199
O5Pb3Se1,2.441872,3.427566,2.441872,3.427566
O5Pd1Se2,0.856587,2.688331,1.879999,3.738317
O5S1Ti1,1.933927,3.159486,1.933927,3.159486
O5S1V1,1.754176,3.081185,2.007884,3.345121
O5Sb2,0.451329,1.75531,3.898528,5.705928
O5Sb2V1,2.569606,3.788593,2.824586,3.883927
O5Sc2V1,0.120025,0.323855,0.155967,0.342493
O5Se2,2.80807,4.191422,2.818646,4.20139
O5Se2Zn1,2.975228,4.127111,2.975228,4.127111
O5Ta1V1,2.187915,3.192392,2.526492,3.602724
O5Ta2,0.220447,1.349048,0.684352,2.073482
O5Te1Tl1V1,2.439863,3.298248,2.500248,3.356367
O5Te2,1.677021,2.633501,3.243861,4.500685
O5Te2Tl2,2.641079,3.618474,2.934408,3.948154
O5Ti3,0.0,0.712562,0.0,0.995517
O5V1Y2,1.680079,2.760243,1.762392,2.854187
O5V2,2.364513,3.232927,2.630322,3.631086
O5V3,0.329172,0.899466,0.418455,1.008023
O6Os1Sr2Y1,0.1534949999999995,2.001801,0.195076,2.076825
O6P1Pb1V1,2.392464,3.316642,2.453566,3.375021
O6P1Sr1V1,2.443536,3.595831,2.604218,3.757668
O6P2Pd1,1.810333,3.851612,2.090517,4.170348
O6P4,3.676749,5.008344,3.917383,5.198641
O6Pb1Sb2,1.92067,3.109918,3.277727,4.744371
O6Pb1Se2,0.995639,1.952078,2.446537,3.626745
O6Pb1V2,2.231112,3.128426,2.367493,3.128426
O6Pb2Sb1Y1,2.74524,3.881146,3.667486,3.881146
O6Pb2Sc1Ta1,2.590012,3.657253,2.590012,3.657253
O6Pb3S1,2.791759,3.863811,2.791759,3.863811
O6Pb3W1,2.171693,3.1430249999999997,2.344143,3.308561
O6Pd1Sr4,1.659764,3.212888,1.659764,3.212888
O6Pt1Sr3Zn1,2.591669,4.270311,2.640678,4.322145
O6Pt1Sr4,2.229851,3.795893,2.229851,3.795893
O6Pt3Zn1,0.306897,1.194502,0.793304,1.533858
O6Rb1S1V1,1.7845,2.687566,1.789231,2.690485
O6Rb1Sc1Se2,4.073376,5.717555000000001,4.197616,5.886534
O6Rb4,0.0,0.637515,0.0,1.009128
O6Rb6Tl2,1.318663,2.655455,2.298447,3.713306
O6Rh1Sc1Sr3,2.413339,4.18095,2.432426,4.206546
O6Rh1Sr3Y1,2.298041,4.055655,2.4341,4.122375
O6Ru1Sr2,0.45763599999999993,1.3265980000000002,0.811841,1.730146
O6Ru1Sr2Y1,0.149308,2.13833,0.166674,2.197533
O6Ru2Sr1,0.049391,0.429052,0.173265,0.429052
O6Sb1Sc1Sr2,3.4881619999999995,5.22516,4.121207,5.841097
O6Sb2Sr1,2.764889,4.441753,4.81049,6.683665
O6Sb2W1,1.138392,1.877791,2.232081,3.084522
O6Sb2Zn1,0.732034,2.572886,0.732034,2.572886
O6Sc2Te1,2.886669,4.546622,3.469332,5.141739
O6Se2Sn1,2.566803,4.14472,4.255947,5.862572
O6Se2Ti1,2.36771,3.739278,2.741753,4.145402
O6Sn1Ta2,2.17638,2.976862,2.195056,3.006509
O6Sn3W1,1.901624,2.749322,2.023203,2.749322
O6Sr1V2,2.7634600000000002,3.92129,2.797522,3.995121
O6Sr2Ta1Y1,3.452778,4.896248,3.452778,4.896248
O6Sr2Ti1Zr1,2.484961,3.896245,3.323854,4.824327
O6Sr2W1Zn1,2.993447,4.268834,3.096385,4.525342
O6Ta2V1,1.016477,1.612516,1.199552,1.839361
O6Te1Tl6,1.788644,2.577009,2.766423,3.662306
O6V2Zn1,2.540978,3.58294,2.663121,3.58294
O7P2Pd2,0.811303,2.736757,1.181478,3.084399
O7P2Pt1,1.610063,3.22478,1.610063,3.22478
O7P2Sn2,3.399954,4.445105,4.007302,5.07112
O7P2Ti1,2.607227,4.081153,2.793627,4.268574
O7P2V1,1.636189,2.772979,1.636189,2.817498
O7P2Zr1,4.692246,6.486496000000001,4.900873,6.701696
O7Pb1Ti3,1.763228,2.902996,2.201933,3.384304
O7Pb2Sb2,1.615574,2.82623,2.745911,3.880694
O7Pb4Rb2,0.948746,1.727162,1.90981,2.892651
O7Pd1S2,0.634705,3.102395,0.778118,3.211839
O7Pt2Tl2,0.661181,1.659627,0.661181,1.659627
O7Rb2W2,2.3843419999999997,3.590623,3.378408,4.713001
O7S1Te2,3.36672,4.703003,3.719175,5.043257
O7Sb1Y3,2.863107,4.445081,4.416327,6.117977
O7Sb2Sr2,1.34186,2.878556,3.372075,5.097206
O7Si2Sr1V1,2.5966650000000002,3.9353360000000004,2.5966650000000002,3.9353360000000004
O7Si2Tl6,1.93795,2.761722,2.52143,3.333459
O7Sn1Ta2,1.506325,2.883884,1.506325,2.883884
O7Sn2Sr3,2.139301,3.607856,4.990153,6.760569
O7Sn2Ta2,1.436319,2.191559,1.584274,2.3651
O7Sn2Y2,2.781953,4.270271,2.781953,4.270271
O7Sr1V3,2.198487,3.683734,2.522398,3.785139
O7Sr2Ta2,2.885001,4.218074,2.885001,4.218074
O7Sr3V2,0.9425020000000002,1.9103329999999996,1.09227,2.068226
O7Tc2,2.926766,4.243993,2.926766,4.243993