material formula,Band_gap_GGA,Band_gap_HSE,Band_gap_GGA_optical,Band_gap_HSE_optical
B5Cu1Lu1O10,2.018804,4.196962,2.095958,4.256383
B5H9,5.533532,6.718347,7.101231,8.237289
B6Ba1,0.0,0.383033,0.0,4.312646
B6C1Li1,1.3965670000000001,2.085419,3.291275,4.055032
B6C2Cs1H3I6N1,1.804103,2.779872,3.783549,4.939761
B6Ca1,0.0,0.448792,0.0,4.140529
B6Co4O13,2.991987,4.8197030000000005,3.172385,5.026077
B6Cr1H16,2.064398,3.109962,4.012995,4.719603
B6H5K2N1O2,1.676663,2.441431,1.93984,2.66854
B6Li1Si1,1.7098009999999997,2.4147979999999993,2.824551,3.686089
B6O1,1.8763,2.796231,1.8763,2.796231
B6O12Se1Zn4,5.018351,6.274648,5.018351,6.274648
B6P1,2.482265,3.448451,4.419505,5.496911
B6Si1,0.082471,0.434918,1.627813,2.149147
B6Sr1,0.0,0.473368,0.0,4.404396
B7Mg1,1.454944,2.138374,3.056552,3.914896
B8Cl8,0.810847,1.559609,0.842762,1.590064
B8S16,2.55024,3.647721,2.619443,3.769107
B9Mg1N1,1.673307,2.362456,3.293797,4.165798
Ba,0.0,0.056917,0.0,0.978702
Ba1.33O16Ru8,0.0,0.024505,0.0,0.024505
Ba11Cd6Sb12,0.16170000000000018,0.7040149999999996,0.16170000000000018,0.7040149999999996
Ba11Sb10,0.0,0.02219,0.0,0.573479
Ba1Be2N2,1.219448,2.302553,2.552699,3.703202
Ba1Be2O7Si2,5.636918,7.412509000000001,6.53777,8.313747
Ba1Bi0.5O3Sb0.5,1.773952,2.663224,4.217734,5.255379
Ba1Bi0.75Na0.25O3,0.285969,1.584317,2.18134,3.731268
Ba1Bi1Cu1,0.0,0.136339,0.0,0.136339
Ba1Bi1F1Mn1,0.9471100000000003,1.4051210000000003,0.9471100000000003,1.4051210000000003
Ba1Bi1I1O2,2.930198,3.946096,3.722524,4.802656
Ba1Bi1Na1,0.048536,0.340212,0.255538,0.340212
Ba1Bi1O2.5,1.74738,2.662596,2.784097,3.819244
Ba1Bi1O3,0.0,0.487574,0.0,5.152718
Ba1Bi1Se3,0.6669200000000002,1.1106130000000003,1.400282,1.908414
Ba1Bi2La1S6,0.551446,1.181273,1.793219,2.603975
Ba1Bi2Mo4O16,2.853878,3.876629,2.9449,3.994018
Ba1Bi2Nb2O9,2.227017,3.435803,2.227017,3.435803
Ba1Bi2O9Ta2,2.059873,3.364939,3.546526,4.911796
Ba1Br2H2O7,4.076801000000001,5.7457080000000005,4.471074,6.163615
Ba1C1Cl1H2N1O1S1,4.835472,6.084986000000001,4.855967,6.108026
Ba1C1Cu1F2O3,1.692653,3.477063,1.728869,3.513079
Ba1C1N2,2.256578,3.2543480000000002,3.181645,3.2543480000000002
Ba1C2,1.561534,2.806485,5.086307,6.618592
Ba1C2Ce1F1O6,2.930157,4.54935,3.026838,4.54935
Ba1C2Mg1O4,0.892632,2.219967,0.892632,2.219967
Ba1C2Mg1O6,4.131463999999999,6.060695,4.948698,6.824307
Ba1C4H6O7,2.622728,4.104585,3.005046,4.520618
Ba1C4O4,2.574998,4.121469,2.80795,4.357471
Ba1C8N8Pt2Rb2,1.696352,2.785326,4.150269,5.578236
Ba1Ca1Fe4O7,1.14568,1.619837,1.311637,1.619837
Ba1Ca1Fe4O8,3.231573,4.691858,3.231573,4.691858
Ba1Ca1Ge1,0.2272,0.7163380000000004,0.2272,0.7163380000000004
Ba1Ca1Pb1,0.038092,0.274409,0.166985,0.384215
Ba1Ca1Si1,0.24969299999999972,0.7295200000000004,0.24969299999999972,0.7295200000000004
Ba1Ca1Sn1,0.238472,0.5895170000000003,0.821722,1.280938
Ba1Cd1F1P1,1.15759,1.859553,1.15759,1.859553
Ba1Cd1F1Sb1,0.276941,0.933666,0.276941,0.933666
Ba1Cd1K2Sb2,0.122895,0.632722,1.294953,1.880458
Ba1Cd1O2,0.964801,2.131317,3.512619,4.744744
Ba1Cd1S2,1.586851,2.534237,1.586851,2.534237
Ba1Cd2P2,0.673759,1.388541,0.673759,1.388541
Ba1Cd2Sb2,0.0,0.2827390000000003,0.0,0.2827390000000003
Ba1Ce1O3,2.514067,4.008526,3.072421,4.498199
Ba1Cl1Cu1O4P1,1.40194,3.284089,1.560439,3.410026
Ba1Cl1O2Sb1,2.902117,3.938162,3.842703,4.998585
Ba1Cl1O3V1,2.367035,3.481099,2.508624,3.619578
Ba1Cl2,5.444953,6.723062,6.565595,8.017431
Ba1Cl2Cu2O6Te2,1.31464,3.113593,1.682875,3.54122
Ba1Cl2Hg2O2,1.580152,2.840714,2.396051,3.684852
Ba1Cl4Pd1,1.4297319999999998,3.115188,1.4297319999999998,3.115188
Ba1Co1F4,3.216193,5.045875,3.222397,5.053214
Ba1Co1F6Li1,2.336743,4.243961,2.347373,4.259044
Ba1Co1Fe1O5Pb1,0.039992,1.463305,0.057337,1.476819
Ba1Co1K2N6O12,1.0637390000000002,2.759491,1.178436,2.92216
Ba1Co1Lu2O5,1.789536,3.372385,1.84339,3.372385
Ba1Co1O1S1,1.130161,2.491271,1.235356,2.621116
Ba1Co1O2,1.529009,2.76074,1.529009,2.76074
Ba1Co1O5Y2,1.835982,3.367633,1.898558,3.367633
Ba1Co2H2O9P2,3.069489,4.846946,3.572019,5.504993
Ba1Co2O8P2,2.245033,3.869674,2.549366,4.213105
Ba1Co3H2O10V2,2.214189,3.389587,2.248351,3.450423
Ba1Co4O7Y1,0.871771,1.890119,0.989535,1.890119
Ba1Cr1O4,2.911637,4.024749,3.00784,4.13577
Ba1Cr1S2,0.704473,1.978851,1.211032,2.578612
Ba1Cr2O14P4,2.745257,4.403192000000001,2.84393,4.504263
Ba1Cr2O4,2.458085,3.688221,2.747508,4.123607
Ba1Cs1P1S4,2.33849,3.42918,2.753516,3.874139
Ba1Cs1S4V1,1.665736,2.319014,1.713335,2.361047
Ba1Cu1F1S1,1.965518,2.845317,1.965518,2.845317
Ba1Cu1F1Se1,1.766701,2.548129,1.766701,2.548129
Ba1Cu1F1Te1,1.296259,1.967246,1.296259,1.967246
Ba1Cu1F7Fe1,2.387742,3.937048,2.441156,3.937048
Ba1Cu1Fe1Lu1O5,0.0,2.537199,0.0,3.533211
Ba1Cu1Fe1O5Y1,0.0,2.433533,0.0,3.549049
Ba1Cu1K2N6O12,0.8361,2.539409,1.645419,3.497868
Ba1Cu1La1S3,1.306961,2.015278,1.306961,2.015278
Ba1Cu1La1Se3,1.110984,1.752836,1.110984,1.752836
Ba1Cu1La1Te3,0.933413,1.457334,0.933413,1.457334
Ba1Cu1Lu2O5,0.854544,2.802009,1.224438,3.193542
Ba1Cu1N1,0.05562800000000001,0.665788,0.05562800000000001,0.665788
Ba1Cu1Na2O8V2,1.643142,3.515819,1.643142,3.515819
Ba1Cu1O5Y2,1.017798,2.938782,1.283468,3.218274
Ba1Cu1O6Se2,1.435415,3.260206,1.605586,3.437234
Ba1Cu1O6Si2,1.99262,4.102127,5.005695,6.541729
Ba1Cu1O7P2,1.591601,3.706246,2.103631,4.270497
Ba1Cu1O7Te2,1.102015,2.859941,1.97239,2.859941
Ba1Cu1S3Sc1,0.995371,1.817709,1.7449,2.763489
Ba1Cu1S3Y1,1.377759,2.174915,2.600305,3.540621
Ba1Cu1Sb1,0.0,0.21625400000000017,0.0,1.560665
Ba1Cu1Se3Y1,1.13689,1.885057,2.190389,3.072785
Ba1Cu1Te3Y1,0.653354,1.279637,1.537553,2.284447
Ba1Cu2Ge1S4,1.350522,2.235065,2.030785,2.890821
Ba1Cu2Ge1Se4,0.679418,1.456631,1.509383,2.256615
Ba1Cu2Ge3H2O10,1.517839,3.607403,2.054488,4.132788
Ba1Cu2O2,1.871042,2.730083,1.871042,2.730083
Ba1Cu2S2,0.7006599999999992,1.4151220000000002,0.7006599999999992,1.4151220000000002
Ba1Cu2S4Sn1,0.802066,1.585383,1.617722,2.41252
Ba1Cu2Se2,0.5459970000000007,1.216819,0.5459970000000007,1.216819
Ba1Cu2Se4Sn1,0.76667,1.4581,1.347204,1.4581
Ba1Cu2Te2,0.8194119999999998,1.3563299999999998,0.8194119999999998,1.3563299999999998
Ba1Cu3H2O10V2,1.283583,3.3156160000000003,1.870062,3.878978
Ba1Cu3O4,0.5529670000000002,1.4414829999999998,2.020128,3.369005
Ba1Cu4S3,0.8477640000000006,1.5883019999999997,0.8477640000000006,1.5883019999999997
Ba1Cu5La4O12,0.235567,2.156814,1.483788,3.341359
Ba1D1Ga1Ge1,0.084969,0.411187,1.672682,2.249923
Ba1D1Ga1Sn1,0.096644,0.649237,0.096644,0.649237
Ba1D4Mg1,2.223336,3.133713,2.931193,3.907627
Ba1D8Fe1Mg2,1.513185,3.497992,2.64738,4.650632
Ba1D8Mg2Os1,2.170978,3.280273,3.151555,4.24619
Ba1D8Mg2Ru1,1.943663,3.158131,3.067485,4.25954
Ba1F1Mn1Sb1,1.097886,1.62641,1.097886,1.62641
Ba1F1Sb1Se2,1.163836,1.777508,1.770555,1.777508
Ba1F2,7.007509,8.96516,9.306254,11.432956
Ba1F22Nb2Xe5,2.570174,4.354392,2.955341,4.808667
Ba1F22Ru2Xe5,1.290529,3.569382,1.356889,3.621237
Ba1F22Sb2Xe5,2.570691,4.353986,2.973569,4.829225
Ba1F2Mn1O4P1,1.309508,2.707885,1.651812,3.14459
Ba1F3Li1,6.586627,8.627663,6.586627,8.627663
Ba1F4O1V1,2.552216,3.878116,2.668727,4.001044
Ba1F4Pd1,1.436155,3.616388,1.436155,4.005126
Ba1F5I1Pb2,2.861258,3.80248,3.529169,4.470377
Ba1F6Ge1,5.401082,7.79403,5.401082,7.79403
Ba1F6Ni1,0.741608,3.395858,0.744232,3.395858
Ba1F6Pb1,2.856244,4.916894,2.856244,4.916894
Ba1F6Si1,7.387326,9.735936,7.387326,9.735936
Ba1F7Fe1Mn1,2.074914,2.860733,2.100614,2.888626
Ba1Fe1K1O3,3.003083,4.440336,3.075253,4.532268
Ba1Fe2O12Se4,2.129552,3.235301,2.164202,3.235301
Ba1Fe2O14P4,2.559193,3.98271,2.633769,4.058576
Ba1Fe2O1S2,2.269112,2.809364,2.36632,2.920545
Ba1Fe2O4,3.294928,4.6638459999999995,3.400763,4.785135
Ba1Fe2O5Y1,0.281613,1.236991,0.281613,1.236991
Ba1Fe3O12P3,0.974428,1.126695,1.142279,1.220546
Ba1Fe4O7,2.071159,3.239828,2.232626,3.364368
Ba1Fe4O8Sr1,1.486172,2.637153,3.151592,4.517399
Ba1Ga1O7Sc1Zn3,2.92649,4.053545,2.92649,4.053545
Ba1Ga1O7Y1Zn3,2.802234,3.918829,2.802234,3.918829
Ba1Ga2P2,1.2715850000000004,1.8381899999999995,1.544032,2.156098
Ba1Ga2Sb2,0.09666299999999994,0.4622760000000006,0.543332,0.936007
Ba1Ga2Se4,1.8221980000000002,2.728743,3.094259,4.074947
Ba1Ga4S7,2.447286,3.438388,3.365132,3.438388
Ba1Ga4Se7,1.526263,2.40517,1.526263,2.40517
Ba1Ge1S3,2.277978,3.319794,2.594532,3.68676
Ba1Ge2O5,1.670813,3.367216,1.670813,3.367216
Ba1Ge2P2,0.49596499999999955,1.145791,0.908918,1.597427
Ba1Ge2S5,2.153637,3.227556,2.665085,3.227556
Ba1Ge3O9Sn1,2.629563,4.38803,4.402759,6.370968
Ba1H1I1,2.728665,3.6393169999999997,2.728665,3.6393169999999997
Ba1H2,2.792379,3.786666,3.615799,4.683895
Ba1H2Ni3O10V2,2.766266,3.158244,3.024935,3.483876
Ba1H2O4Sn2,2.026152,2.752483,2.710561,3.525964
Ba1H3Li1,2.230644,3.144592,3.427126,4.42911
Ba1H3Na1Pd1,1.413064,2.241207,2.439714,3.332805
Ba1H4O3,0.14024,0.636103,0.191276,0.689464
Ba1Hf1N2,1.2091010000000004,2.169353,1.805042,2.793539
Ba1Hf1S3,1.236846,2.0003690000000005,1.236846,2.0003690000000005
Ba1Hg1O2,2.304069,3.777862,4.31939,6.061407
Ba1Hg1S2,1.337585,2.1337330000000003,1.850703,2.715799
Ba1I2,3.449466,4.405084,4.033797,4.405084
Ba1I4O12Pd1,1.931091,3.5845949999999998,2.52193,3.5845949999999998
Ba1In2P2,0.3041240000000007,0.8156349999999999,0.3041240000000007,0.8156349999999999
Ba1In2Te4,0.9626730000000001,1.639885,2.071305,2.848331
Ba1K1Mn1O4,1.742676,3.247557,1.858066,3.374667
Ba1K1Nb1S4,2.034853,2.907466,2.034853,2.907466
Ba1K1P1S4,2.281999,3.356883,2.562975,3.663755
Ba1K1P1Se4,1.048182,1.94581,1.252335,1.94581
Ba1K1Sb1Se3,1.802876,2.527399,2.003854,2.765476
Ba1K4S8V2,1.838372,2.507448,1.976692,2.651303
Ba1La1Sb2Se6,0.615239,1.13567,1.089964,1.13567
Ba1La2Mn1S5,1.284139,2.037552,1.799811,2.544045
Ba1La2O10Ti3,1.927341,3.250478,2.267604,3.761154
Ba1La2O5Pd1,2.465899,4.216274,2.644687,4.435215
Ba1La2O5Pt1,2.415304,3.744243,3.13018,5.057876
Ba1La2S5Zn1,1.515163,2.368477,1.515163,2.368477
Ba1Li1P1,0.9440400000000002,1.6234410000000001,2.240188,3.009124
Ba1Li1Sb1,0.680167,1.283973,1.711467,2.391354
Ba1Li2Mn1O8V2,2.79506,3.417657,2.977331,3.645238
Ba1Lu2Ni1O5,2.234953,3.0214,2.316762,3.118117
Ba1Lu2S4,1.6424029999999998,2.6064860000000003,1.6424029999999998,2.6064860000000003
Ba1Lu2Se4,1.330456,2.199,1.330456,2.199
Ba1Lu2Te4,0.7683299999999997,1.4678140000000002,0.7683299999999997,1.4678140000000002
Ba1Mg1O7Te2,1.903238,3.301185,3.185216,4.688753
Ba1Mg2P2,1.122191,1.772545,2.655093,3.415369
Ba1Mg2Sb2,0.841799,1.4064659999999995,1.447053,2.121034
Ba1Mn1O3,2.124827,3.680355,2.208899,3.686551
Ba1Mn1O4Rb1,1.689045,3.193,1.842231,3.354122
Ba1Mn2O14Si4Sr2,1.585319,3.153453,2.310029,3.919446
Ba1Mn2O3,0.27648399999999995,1.1825400000000004,3.083784,4.030569
Ba1Mn2O6Y1,0.250133,1.32196,1.525192,2.691508
Ba1Mn2O8,1.837824,2.903162,1.941744,3.013796
Ba1Mn2P2,0.6388700000000007,1.1644460000000003,1.868953,2.422947
Ba1Mn2Sb2,0.402104,0.8851079999999998,1.569768,1.764305
Ba1Mn3O12P3,0.342188,0.994289,1.175924,2.012768
Ba1Mo1O4,0.0,0.306418,0.0,0.306418
Ba1Mo2O11Se2,2.168454,3.507531,2.419774,3.796757
Ba1Mo2O12P2,2.560152,4.006198,2.66925,4.116319
Ba1Mo2O9Te1,2.536524,3.697778,2.549736,3.87113
Ba1Mo4O16P2,1.970483,3.058587,2.048215,3.058587
Ba1N1O2Ta1,0.296747,1.449143,0.296747,1.449143
Ba1N2O4,2.371957,4.310362,2.403006,4.349974
Ba1N2O6,3.590513,5.606368,3.590513,5.606368
Ba1N2Si1,2.8660110000000003,4.000655999999999,3.137005,4.317203
Ba1N2Zr1,1.02513,2.011504,1.827705,2.80628
Ba1N6,3.79317,4.998455,3.79317,4.998455
Ba1Na1P1,0.856754,1.5223750000000003,0.856754,1.5223750000000003
Ba1Nb2O11V2,2.10193,3.307008,2.179962,3.39372
Ba1Nb2O6,2.909886,4.275379,3.076068,4.470185
Ba1Ni1O2,0.479422,2.849834,0.933984,2.849834
Ba1Ni1O3,1.442124,3.121861,1.460479,3.124115
Ba1Ni1S2,0.233227,0.410438,0.403964,0.67184
Ba1Ni2O8V2,3.200388,3.847709,3.570383,4.281509
Ba1Ni4O8,0.347075,1.291685,1.170319,2.228586
Ba1O1,2.045991,3.353773,2.045991,3.353773
Ba1O13Ti6,2.449244,3.868306,2.634393,4.094175
Ba1O14P4V2,2.147122,3.252728,3.418747,4.550107
Ba1O1S1Zn1,2.372226,3.306205,3.708285,4.702473
Ba1O2,2.239859,3.818634,2.239859,3.818634
Ba1O2S1,1.3580910000000004,2.587788,2.109209,3.312996
Ba1O2Zn1,2.847387,3.9319310000000005,4.186054,5.231745
Ba1O3Pb1,0.016113,0.349271,2.770115,0.349271
Ba1O3Ru1,0.0,0.020503,0.0,0.514108
Ba1O3Si1,2.135007,3.880355,2.135007,3.880355
Ba1O3Sn1,0.32632,1.884762,4.987709,6.673728
Ba1O3Tc1,0.23993,0.874243,0.478859,0.874243
Ba1O3Te1,2.558463,3.572265,3.202755,4.306856
Ba1O3Ti1,1.584434,2.8689569999999995,3.855148,5.428463
Ba1O4W1,2.850131,4.238375,2.850131,4.238375
Ba1O5Pd1Y2,2.106808,3.779314,2.249268,3.94034
Ba1O5Ti2,2.6172969999999998,4.127639,3.423419,5.001326
Ba1O6P1V1,2.470416,3.621056,2.631739,3.781124
Ba1O6Pd1Se2,1.694618,3.398071,2.347233,4.117846
Ba1O6Sb2,2.843283,4.472186,4.916257,6.751794
Ba1O6Ta2,2.044031,3.532764,3.14251,4.521593
Ba1O6Te2,1.764957,2.894158,4.054431,5.465005
Ba1O6V2,2.781037,4.004271,2.861755,4.11289
Ba1O7Si2V1,2.541638,3.887228,2.541638,3.887228
Ba1O7Sr1Ta2,2.128529,3.499733,4.473672,5.982856
Ba1O7Te2Zn1,1.971724,3.077881,3.15201,3.077881
Ba1O8P2Sn1,3.7249670000000004,5.504449999999999,6.593771,8.349864
Ba1O8V3,1.9474980000000002,2.894688,2.107186,3.128656
Ba1O9Ti4,2.558566,3.993675,2.934395,4.404483
Ba1O9V4,1.41664,2.420056,1.485105,2.505845
Ba1P10,1.206474,1.890551,1.748477,2.501344
Ba1P1Rb1S4,2.259709,3.340027,2.684054,3.804951
Ba1P1Se3,2.0894130000000004,3.058269,2.390266,3.353554
Ba1P2Zn2,0.0,0.41017100000000006,0.0,1.613481
Ba1P3,1.348781,2.025793,1.749727,2.484598
Ba1P3Pt2,0.12553599999999943,0.496518,1.081151,1.57696
Ba1P4Te2,1.122249,1.7642189999999998,1.545005,2.182326
Ba1P8,0.781563,1.419515,1.543566,2.247705
Ba1Pd1S2,0.36243199999999964,1.40462,0.36243199999999964,1.40462
Ba1Pd2S4,0.893872,1.7756199999999995,1.589944,2.5478
Ba1Pt2S3,1.0274489999999998,2.057922,1.44458,2.438922
Ba1Rb1S4Ta1,2.453865,3.335663,2.653433,3.534514
Ba1Rb1Se4V1,1.112711,1.6770230000000002,1.212582,1.767696
Ba1Rh2Si9,0.13694700000000015,0.4353479999999994,0.609361,0.918861
Ba1S1,2.145482,3.075817,3.866937,4.933488
Ba1S2,1.563848,2.665156,1.616589,2.712718
Ba1S2Sn1,1.677508,2.272984,1.98909,2.632968
Ba1S3,1.383634,2.433895,1.460234,2.531634
Ba1S3Sn1,0.8530290000000003,1.5845590000000005,1.463372,2.253095
Ba1S3Sn2,1.1143619999999999,1.6257370000000004,1.307268,1.835695
Ba1S3Te1,1.8633409999999997,2.6676960000000003,2.52818,3.381945
Ba1S3V1,0.22764500000000032,0.7436229999999999,0.57184,1.146956
Ba1S3Zr1,1.047733,1.8436549999999996,1.047733,1.8436549999999996
Ba1S4Y2,1.7542689999999999,2.699425,1.7542689999999999,2.699425
Ba1S5Sn2,1.5213929999999998,2.3996329999999997,1.798055,2.697043
Ba1Sb1Te3,0.40618900000000036,0.688409,1.066143,1.421568
Ba1Sb2Zn2,0.023756000000000554,0.40419799999999917,0.839316,1.216511
Ba1Sc2Te4,0.45089800000000047,1.1572230000000001,0.45089800000000047,1.1572230000000001
Ba1Se1,1.18452,2.026515,2.837049,3.762562
Ba1Se2,0.545324,1.406809,0.649003,1.509223
Ba1Se3,0.936295,1.846117,1.153152,2.056732
Ba1Se4Y2,1.3748609999999997,2.2181580000000003,1.3748609999999997,2.2181580000000003
Ba1Si2,0.724936,1.161325,0.930858,1.379503
Ba1Sn2,0.0,0.164492,0.0,1.370797
Ba1Te1,1.589143,2.326601,2.94345,3.533176
Ba1Te2,0.340809,0.986279,1.626784,2.384327
Ba1Te3,0.743132,1.398796,2.319497,3.06807
Ba1Te4Y2,0.8152500000000003,1.4994689999999995,1.331103,1.4994689999999995
Ba2Bi1Fe1S5,1.14343,1.988364,1.435691,2.349227
Ba2Bi1Ga1S5,2.220409,3.015018,2.556,3.355769
Ba2Bi1Ga1Se5,1.625174,2.286056,1.641225,2.301922
Ba2Bi1Ga1Te5,1.072167,1.605285,1.641787,1.605285
Ba2Bi1In1S5,1.382506,2.166471,2.877799,3.716854
Ba2Bi1In1Se5,0.993446,1.671039,2.505207,3.202269
Ba2Bi1La1O6,1.811025,3.168754,5.533544,7.357305
Ba2Bi1Lu1O6,1.491881,2.915971,5.614591,7.331118
Ba2Bi1O6Ru1,0.0,0.570269,0.0,0.863578
Ba2Bi1O6Sb1,1.775848,2.665808,4.22837,5.232318
Ba2Bi1O6Ta1,2.661474,3.69967,2.661474,3.69967
Ba2Bi1O6Y1,1.868975,3.33364,4.570107,3.33364
Ba2Bi2Mn2O1,0.640508,1.082337,0.747011,1.258594
Ba2Bi2O2Se3,1.2758660000000002,1.8545269999999996,2.365718,2.989547
Ba2Bi2O6,0.0,0.308893,0.0,1.047566
Ba2Br1Cu1O2,2.630883,3.883264,4.044349,3.883264
Ba2Br1H3,2.034034,2.9031219999999998,2.49703,3.415021
Ba2Br1In1O3,1.876497,3.07181,4.785291,6.074118
Ba2Br1N1,1.084781,1.9596259999999999,1.084781,1.9596259999999999
Ba2Br1P7,1.6005020000000005,2.2816340000000004,2.176212,2.95069
Ba2Ca1Mo1O6,1.902688,3.092068,2.241812,3.437119
Ba2Ca1N4W1,1.846559,2.759326,1.974669,2.904326
Ba2Ca1O6Pd3,1.393141,3.00999,1.580765,3.197202
Ba2Ca1O6Te1,3.053728,4.62327,3.053728,4.62327
Ba2Ca1O6W1,2.761506,4.067704,3.068358,4.386705
Ba2Cd1S3,2.070074,3.0992569999999997,2.070074,3.0992569999999997
Ba2Cd1Se3,1.54611,2.462939,1.54611,2.462939
Ba2Cd1Te3,1.3680070000000004,2.1168250000000004,1.3680070000000004,2.1168250000000004
Ba2Cd2K1Sb3,0.176768,0.71305,0.176768,0.71305
Ba2Cd2Sb3,0.0,0.4872679999999998,0.0,1.023697
Ba2Ce0.75O6Sb1,2.210363,3.583574,2.3133,3.63141
Ba2Ce1O6Pt1,1.588991,3.005965,1.845146,3.228111
Ba2Cl1Cs1S4Sn1,2.555657,3.605466,2.555657,3.605466
Ba2Cl1Cu1O2,2.66795,3.944477,4.050745,3.944477
Ba2Cl1H3,0.0,0.3970539999999998,0.0,0.3970539999999998
Ba2Cl1In1O3,1.975806,3.201662,4.71095,5.998475
Ba2Cl1Mn1O7Si2,1.294818,2.643673,2.413204,3.835001
Ba2Cl1N1,1.062833,1.9465439999999998,1.062833,1.9465439999999998
Ba2Cl1P1,1.198334,1.893812,1.198334,1.893812
Ba2Cl1P7,1.471524,2.140451,2.120076,2.916761
Ba2Cl6Co1,2.669855,4.285647,2.678959,4.285647
Ba2Co1Cu2O2S2,1.351668,2.407132,1.351668,2.407132
Ba2Co1Ge2O7,2.000441,3.281079,2.000441,3.281079
Ba2Co1O4,1.280882,3.015257,1.353758,3.09416
Ba2Co1O7Si2,2.900706,4.470853,3.00029,4.470853
Ba2Cr1Nb1O6,1.562008,2.639874,1.867557,2.979075
Ba2Cr1O4,1.880461,3.2674070000000004,2.180398,3.617893
Ba2Cs1Nb3O10,1.373612,2.569273,4.404414,5.898804
Ba2Cu1F6,2.5689599999999997,4.707858,2.5689599999999997,4.707858
Ba2Cu1Ge2O7,1.458238,3.373547,1.75953,3.676514
Ba2Cu1I1O2,2.614297,3.852441,2.922762,4.016862
Ba2Cu1O6Te1,0.237837,1.965293,2.640157,4.170743
Ba2Cu1O6W1,0.711245,2.700867,0.711245,2.700867
Ba2Cu1O7Si2,1.347455,3.351243,1.347455,3.351243
Ba2Cu1O8P2,1.395522,3.435776,5.245368,6.837646
Ba2Cu3Li1O6,0.345976,1.815415,0.815352,2.327529
Ba2Cu3Na1S5,0.870666,1.741767,2.484711,3.260218
Ba2Cu3S6V1,1.157381,1.670224,1.300763,1.854106
Ba2D4Pd1,1.5389129999999995,2.321144,1.731582,2.557259
Ba2D6Mg1,2.827788,3.806139,3.536436,4.58548
Ba2D6Os1,2.0005499999999996,3.105257,3.004806,4.262731
Ba2D6Pt1,1.6023640000000001,2.4258,3.129344,4.109657
Ba2D6Ru1,1.8977439999999999,3.194025,2.867634,4.300465
Ba2F1In1O3,2.163082,3.458318,4.6192,5.9316
Ba2F1N1,1.053353,1.962762,1.053353,1.962762
Ba2F2Fe2O1S2,2.594521,3.472429,3.551128,4.635146
Ba2F2Fe2O1Se2,2.564811,3.441692,2.630587,3.536245
Ba2F2Mn2O1Se2,2.084345,2.837282,3.826535,4.745706
Ba2F2S3Sn1,2.266507,3.3258,2.266507,3.3258
Ba2F2Se3Sn1,1.691256,2.603566,1.691256,2.603566
Ba2F6Pd1,1.753042,3.933191,1.854795,4.045107
Ba2F6Zn1,6.058636,7.310396,8.138257,9.363245
Ba2Fe1Ge2O7,1.494911,2.030303,1.494911,2.030303
Ba2Fe1H1O9V2,2.560435,3.802825,2.560435,3.802825
Ba2Fe1Mo1O6,0.550438,1.885416,0.958452,2.390421
Ba2Fe1O4,0.8606209999999999,2.133662,0.931477,2.224825
Ba2Fe1O6W1,1.272555,1.8160879999999997,1.272555,1.8160879999999997
Ba2Fe1S5Sb1,1.044903,1.844974,1.293598,2.163526
Ba2Fe1Se3,1.4793820000000002,2.2825889999999998,1.821312,2.65228
Ba2Fe3H1O22P6,2.404527,3.814869,2.444394,3.856131
Ba2Fe3O8Y1,1.158213,2.411467,1.583533,2.721011
Ba2Ga1Ge1N1,0.0,0.37135799999999985,0.0,1.315415
Ba2Ga1In1O5,1.439548,2.726677,3.528382,4.893313
Ba2Ga1S5Sb1,2.155598,2.916802,2.172197,2.934098
Ba2Ga1Sb1Se5,1.572914,2.223655,1.574893,2.226629
Ba2Ga1Sb1Te5,1.008105,1.548416,1.055888,1.57833
Ba2Ga1Se5Y1,1.628973,2.464762,2.327074,3.258472
Ba2Ga1Te5Y1,0.426338,1.011054,0.426338,1.011054
Ba2Ga2S5,2.7539450000000003,3.827609,2.7539450000000003,3.827609
Ba2Ge1,0.076361,0.454478,0.076361,0.454478
Ba2Ge1P2,0.559358,0.9320870000000001,0.953185,1.321677
Ba2Ge1S4,2.2182760000000004,3.232473,2.2182760000000004,3.232473
Ba2Ge1Se2Te2,0.749055,1.439642,1.129452,1.868917
Ba2Ge1Se4,1.335453,2.201578,1.335453,2.201578
Ba2Ge2O1S6Zn1,2.077849,3.177629,2.919331,3.177629
Ba2Ge2Se5,1.140038,1.8261649999999998,1.570265,2.266905
Ba2Ge2Te5,0.5834390000000003,1.1255720000000005,0.863383,1.431982