material formula,Band_gap_GGA,Band_gap_HSE,Band_gap_GGA_optical,Band_gap_HSE_optical
Ba2Ge5Ir4,0.17615900000000018,0.4871059999999998,0.299867,0.628572
Ba2H1Mn1O9V2,0.790899,2.015776,1.695492,3.05679
Ba2H1O22P6V3,1.820886,2.5653,1.849688,2.5653
Ba2H1O9V3,2.077478,3.043289,2.711039,3.728604
Ba2H3I1,2.1420259999999995,2.9786409999999997,2.504623,3.395103
Ba2H7O7Tl1,2.360364,3.702915,3.412492,4.81706
Ba2Hf1S4,0.83521,1.5958110000000003,3.835813,4.823186
Ba2Hg1S3,1.3609429999999998,2.302946,1.3609429999999998,2.302946
Ba2Hg1S5,1.6605489999999996,2.6833080000000002,1.6605489999999996,2.6833080000000002
Ba2I1Na1O6,2.239865,3.924027,2.239865,3.924027
Ba2I1P7,1.7199529999999998,2.4078779999999997,2.197059,2.964151
Ba2I2O1,2.969277,4.07501,4.053136,5.232128
Ba2In1O6Ru1,0.376016,2.382611,0.46589,2.488877
Ba2In1S4,1.8820190000000006,2.9434939999999994,1.962121,3.033208
Ba2In1Sb1Se5,0.756567,1.390939,2.138112,2.761411
Ba2In1Sb1Te5,0.641919,1.101429,1.705413,2.229477
Ba2In1Se5Y1,1.076875,1.901715,1.076875,1.901715
Ba2In1Te5Y1,0.684893,1.302361,0.684893,1.302361
Ba2In2O5,0.987588,2.12527,2.6962,3.976551
Ba2La1O6Ru1,0.219534,2.245301,0.219534,2.245301
Ba2La2Mn1O12W2,1.628393,2.417233,1.856628,2.6601
Ba2Li1O6Re1,1.798792,2.92142,2.328469,3.465678
Ba2Li1Si3,0.0880399999999999,0.35384899999999986,0.0880399999999999,0.35384899999999986
Ba2Li3N4Nb1,2.360156,3.325352,2.928074,3.944881
Ba2Li3N4Ta1,2.412366,3.382136,2.956596,3.977939
Ba2Lu1O6Ru1,0.056315,2.072719,0.056315,2.072719
Ba2Mg1O6Te1,1.794603,3.318005,1.794603,3.318005
Ba2Mn1Mo1O6,0.825015,1.528237,1.485369,2.221596
Ba2Mn1O3,2.390465,3.467338,2.390465,3.467338
Ba2Mn1O6Te1,1.021438,1.780556,4.848441,5.73327
Ba2Mn1O6W1,1.690593,2.501739,2.422497,3.299841
Ba2Mn1S3,1.857771,2.699251,1.857771,2.699251
Ba2Mn2O1Sb2,0.840396,1.383378,1.205818,1.779019
Ba2Mn3O2Sb2,0.809578,1.335622,1.029975,1.563537
Ba2Mo1Ni1O6,1.993364,3.223687,2.354477,3.588084
Ba2N2Zn1,0.5877340000000002,1.2473969999999999,1.329581,2.189405
Ba2N3Nb1,1.946349,2.8514489999999997,2.204225,3.135983
Ba2N3Ta1,2.0165889999999997,2.933801,2.220472,3.156489
Ba2N3V1,1.5482950000000004,2.2496240000000003,1.5482950000000004,2.2496240000000003
Ba2N8Si5,2.8881489999999994,4.067399000000001,3.196442,4.423567
Ba2Na1O6Re1,1.850626,2.987835,2.387092,3.591003
Ba2Nb1O6Y1,2.875664,4.272385,2.875664,4.272385
Ba2Nb6O21Te2,2.148483,3.482821,2.148483,3.482821
Ba2Ni1O6Te1,2.395417,3.66465,2.395417,4.894034
Ba2O18Ru7,0.0,0.101388,0.0,0.437216
Ba2O1Te1,1.7368510000000001,2.592886,1.7368510000000001,2.592886
Ba2O21Ta6Te2,2.803814,4.137619,2.86471,4.232782
Ba2O3Pd1,0.041664,1.664447,2.653319,4.568007
Ba2O3Zn1,3.1538710000000005,4.274529,3.1538710000000005,4.971029
Ba2O4Pb1,1.11556,2.131659,4.99794,6.619223
Ba2O4Sn1,2.64967,4.184926,5.536616,7.112007
Ba2O4V1,1.576757,2.648443,1.6607,2.733053
Ba2O5Re1,0.0,0.135153,0.0,0.24696
Ba2O5Tl2,0.046588,0.316901,0.066974,0.316901
Ba2O5W1,2.753042,4.032197,3.31915,4.670668
Ba2O6Os1Y1,0.035452,1.904508,0.035452,1.904508
Ba2O6Ru1Y1,0.076401,2.096706,0.076401,2.096706
Ba2O6Te1Zn1,0.594777,2.052034,0.594777,2.052034
Ba2O6Ti1Zr1,2.17067,3.575074,2.17067,3.575074
Ba2O8Si2V1,2.507406,3.914627,2.50821,4.127859
Ba2O9P2V1,2.407844,3.66062,2.46341,3.712625
Ba2O9V3,1.897007,2.979878,2.095957,3.219149
Ba2Re6S11,1.334823,2.033251,1.416664,2.121847
Ba2S3,1.575055,2.608657,3.248931,4.271139
Ba2S3Zn1,2.080206,2.9262760000000005,2.080206,2.9262760000000005
Ba2S4Sn1,1.919343,2.8734220000000006,1.919343,2.8734220000000006
Ba2S4Ti1,2.032742,2.8685850000000004,2.032742,2.8685850000000004
Ba2S4Zr1,0.610033,1.3823589999999997,3.560433,4.638856
Ba2Sb2Zn1,0.35651500000000036,0.7903310000000001,1.288695,1.865077
Ba2Sb3,0.152212,0.365849,0.454312,0.667101
Ba2Se3Zn1,1.7971209999999997,2.642089,1.7971209999999997,2.642089
Ba2Se4Si1,2.233674,3.160398,2.233674,3.160398
Ba2Se4Sn1,1.234772,2.009498,1.234772,2.009498
Ba2Se5Sn1,1.2337600000000002,2.064662,1.459041,2.318534
Ba2Si1,0.052264,0.422858,0.052264,0.422858
Ba2Si1Te4,1.1005859999999998,1.777488,1.461901,2.18743
Ba2Sn1,0.10789,0.426688,0.665586,1.02676
Ba2Sn1Te5,0.0,0.3976110000000004,0.0,0.3976110000000004
Ba2Te3Zn1,1.3126579999999999,1.9851489999999998,1.3126579999999999,1.9851489999999998
Ba3Bi1N1,0.6760039999999998,1.29263,0.6760039999999998,1.29263
Ba3Bi1Na1O6,1.751211,3.133697,2.509287,3.964718
Ba3Bi2O9Te1,2.146736,2.97382,2.581282,3.480041
Ba3Br1Fe1S4,1.242863,2.253771,1.256745,2.253771
Ba3Br2Fe2O5,3.046681,4.430853,3.050677,4.435807
Ba3Br2In2O5,1.363613,2.583724,5.05841,6.391858
Ba3C3Co1N3,0.749301,1.284792,1.42085,2.01373
Ba3C3Ir1N3,0.676057,1.239799,1.751253,2.371748
Ba3C3N3Rh1,0.541637,1.051796,1.51133,2.038539
Ba3Ca1O9Ru2,0.581188,2.646017,0.581188,2.646017
Ba3Ca2N6Si2,1.575186,2.550641,2.397991,3.450694
Ba3Cd2Sb4,0.0,0.13624100000000006,0.0,1.246729
Ba3Cl1Ga1Se4,2.620961,3.592489,2.795133,3.758175
Ba3Cl1In1S4,2.755564,3.782858,3.554576,4.586836
Ba3Cl1In1Se4,2.280779,3.2125679999999996,3.125617,4.071789
Ba3Cl2Cu2O4,1.027752,2.788271,1.291491,3.117644
Ba3Cl2Fe2O5,3.084579,4.476151,3.085781,4.476151
Ba3Cl2In2O5,1.473343,2.731665,4.947591,6.281313
Ba3Cl2O5Tl2,0.0,0.07078,0.0,5.088374
Ba3Co1O9Sb2,1.856123,3.033237,2.71324,4.132231
Ba3Cr1O5,1.3815470000000003,2.761462,2.040802,3.495802
Ba3Cr2Mo1O9,1.608854,2.535845,1.608854,2.569699
Ba3Cr2O9W1,2.382577,3.443403,2.458373,3.539376
Ba3Cr2S6,0.8356299999999997,1.7123280000000003,0.913829,1.801873
Ba3Cu2O10Pt1Y2,1.160379,3.15499,2.535056,4.321959
Ba3F2In2O5,1.689154,3.029197,4.715221,6.037852
Ba3Fe3Nb1O14Si2,2.470192,3.943544,2.720214,4.142015
Ba3Fe3O14Si2Ta1,2.586069,4.042596,2.721314,4.213878
Ba3Ga1P3,0.5893519999999999,1.2030540000000003,0.979893,1.607707
Ba3Ga2Ge4O14,2.112478,3.808892,4.31856,6.139796
Ba3Ga2N4,1.493652,2.4974580000000004,2.219542,3.236526
Ba3Ga2S6,2.6528669999999996,3.6641269999999997,2.6528669999999996,3.6641269999999997
Ba3Ge1Mg1N4,1.312603,2.269339,2.134263,3.099843
Ba3Ge1O1,0.334149,0.740163,0.534834,0.965634
Ba3Ge1S5,2.0249010000000003,3.047259,2.228321,3.272863
Ba3I2Si1,0.23831999999999987,0.6730960000000001,0.23831999999999987,0.6730960000000001
Ba3In2O6,0.7579379999999998,2.010255,4.658886,6.166482
Ba3In2P4,1.1011969999999995,1.7349199999999998,1.1011969999999995,1.7349199999999998
Ba3Li4Sb4,0.0,0.07257200000000008,0.0,2.078881
Ba3Mg1Nb2O9,2.649944,4.004843,3.114826,4.496289
Ba3Mg1O9Ru2,0.06199,1.663307,0.06199,1.832012
Ba3Mg1O9Sb2,2.681159,4.344349,2.681159,4.344349
Ba3Mn1Nb2O9,1.76734,2.644057,2.370251,3.290032
Ba3Mn1O9Sb2,1.751522,2.613935,1.751522,2.613935
Ba3Mn2O8,1.721463,3.208389,2.189654,3.755621
Ba3N1Sb1,0.6758519999999999,1.3717310000000005,0.6758519999999999,1.3717310000000005
Ba3N2O1Zn1,0.505766,1.195659,1.656227,2.508966
Ba3Na1O6Ru1,0.511888,2.477532,0.602801,2.536016
Ba3Na1O6Sb1,2.853778,4.386678,4.077416,5.772872
Ba3Nb2O9Sr1,2.8128339999999996,4.209676,3.25921,4.68164
Ba3Nb2O9Zn1,2.679781,4.051228,3.09508,4.468904
Ba3Nb6O26Si4,2.348172,3.64162,2.652195,3.969665
Ba3Ni1O4,2.15181,3.444255,2.179701,3.51402
Ba3Ni1O9Ru2,0.493408,2.452151,0.687106,2.626112
Ba3Ni1O9Sb2,2.374238,3.965599,2.374238,3.965599
Ba3O14P2Te1Zn3,3.283199,4.682346,6.031665,7.563639
Ba3O1Sb2,0.18159999999999998,0.7575940000000001,0.639129,1.261282
Ba3O20Si4Te1Zn6,3.310924,4.413031,5.598667,6.732257
Ba3O3S4V2,1.361844,2.04948,1.91693,2.609038
Ba3O4P2Se4,1.250074,2.145506,1.674236,2.611882
Ba3O6Sb2,2.909448,3.875721,3.190519,4.178599
Ba3O6W1,2.714143,3.999236,3.145347,4.442637
Ba3O9Te2,2.3989160000000003,3.9944359999999994,2.3989160000000003,3.9944359999999994
Ba3P14,1.721029,2.420279,1.93845,2.67986
Ba3P2S8,1.9591690000000006,3.025725,2.697926,3.839091
Ba3P3Sn1,0.8012850000000005,1.3584699999999996,1.156917,1.77137
Ba3P4,0.481597,1.104792,0.481597,1.104792
Ba3P4Sn2,0.7747700000000002,1.3257720000000002,1.312544,1.934876
Ba3P6Si4,0.39215599999999995,1.050732,0.39215599999999995,1.050732
Ba3S5Si1,2.806552,3.7867979999999997,2.806552,3.7867979999999997
Ba3S5Ti1,1.3894420000000003,2.1708859999999994,1.3894420000000003,2.1708859999999994
Ba3S7Zr2,0.48783299999999974,1.2465360000000003,3.139057,4.138706
Ba3S8Ta2,0.652256,1.2661439999999997,0.984232,1.615309
Ba3Sn2,0.406225,0.740207,0.643416,0.961628
Ba4Bi3K1O1,0.762381,1.283169,1.641169,2.195052
Ba4Br2Si3,0.315372,0.6891779999999996,0.386228,0.768101
Ba4C2Cu1Li1O10,0.865456,2.417224,3.934505,5.400575
Ba4C2Cu1Na1O10,0.950979,2.535799,3.81397,5.338176
Ba4Cd3Li2P6,0.445513,1.08276,0.600403,1.280931
Ba4Ce1Mn3O12,1.8639549999999998,3.347246,1.914069,3.392149
Ba4Cl1Ge3Na1S10,1.752862,2.793652,2.307312,3.334274
Ba4Cl2N4W1,2.154507,3.052054,2.861559,3.828515
Ba4F4Ga2Mn1S6,2.891472,3.772492,3.10988,3.991729
Ba4Fe2O11Y2,0.52322,1.592391,1.519023,2.79689
Ba4Fe3Se10,0.74268,1.418013,0.931021,1.722618
Ba4Ga2S7,2.550512,3.543697,2.550512,3.543697
Ba4Hf3S10,0.6653549999999999,1.3955810000000004,3.305944,4.251903
Ba4In2S5Te2,1.956582,2.798413,2.140901,3.014368
Ba4In2Se5Te2,1.76169,2.566691,1.907545,2.726273
Ba4K1O1Sb3,1.038876,1.647787,1.788566,2.476764
Ba4Li1Nb3O12,2.587308,3.9132640000000003,2.587308,3.9132640000000003
Ba4Li1O12Sb3,1.473653,2.993319,3.621154,5.364779
Ba4Li1O12Ta3,3.0813110000000004,4.418531,3.0813110000000004,4.418531
Ba4Mg1N6Si2,1.584754,2.51766,2.312362,3.28524
Ba4Mn3O10,1.033327,2.301583,1.237238,2.474105
Ba4Na1O12Sb3,1.539391,3.066388,3.600335,5.341011
Ba4Nb2O9,3.512993,4.972639999999999,3.512993,4.972639999999999
Ba4O10Pt1Ti2,1.904648,3.422834,1.904648,3.527822
Ba4O10Ru3,0.0,1.057019,0.0,1.259342
Ba4O1P2,1.0181210000000003,1.658909,1.0181210000000003,1.658909
Ba4O1Rb1Sb3,0.841346,1.438586,1.163234,1.808396
Ba4O1Sb2,0.574063,1.15696,0.574063,1.15696
Ba4O6Pt1,1.850031,3.316706,1.912621,3.408514
Ba4P3,0.706744,1.354461,1.245702,1.95449
Ba4Sb2Se11Si1,0.849689,1.653768,1.234291,2.108142
Ba5Br2O9Ru2,0.473638,2.485171,0.579191,2.616358
Ba5Cd2F1Sb5,0.0,0.110964,0.0,0.816622
Ba5Cd2O2Sb4,0.0,0.394866,0.0,1.571961
Ba5Cl2O9Ta2,3.5270469999999996,4.8697989999999995,3.626589,4.954705
Ba5Cr1N5,0.18854700000000024,0.46033800000000014,0.751594,1.151761
Ba5D2Ga6,0.36403399999999975,0.858482,0.90699,1.394746
Ba5In2Sb6,0.0,0.438238,0.0,0.44064
Ba5Mn4O21Y8,2.045653,3.020748,2.834679,3.8736
Ba5N6Ti2,1.4970970000000001,2.3763680000000003,1.847803,2.744103
Ba5Nb4O15,2.5901879999999995,3.896832,2.715437,4.016821
Ba5Nb4O15.33,2.610166,3.859655,2.713975,3.959903
Ba5O10Ru2,0.431998,1.993773,0.580941,2.335234
Ba5O14V5,0.8748559999999999,1.2452159999999997,0.942103,1.322441
Ba5P4,0.896559,1.52001,1.10707,1.75247
Ba5Sb4,0.230718,0.699594,0.995638,1.563977
Ba6Cl2O12Pt1Ru2,0.682486,2.535892,0.682486,2.603612
Ba6D26Mg7,2.952267,3.921646,3.441322,4.465913
Ba6H1O1Rb2Sb5,0.843426,1.482949,0.958548,1.623947
Ba6Lu2O18W3,2.571882,3.794459,2.719466,3.951841
Ba6Ni5O15,1.2731599999999998,2.365772,1.420816,2.565725
Ba7F8In2Se6,1.189558,2.046032,1.189558,2.046032
Ba8Bi4H2O1,0.531585,1.070364,0.531585,1.070364
Ba8Co1Nb6O24,0.0,2.841451,0.0,3.388575
Be1Bi1La3S7,1.782787,2.393182,1.782787,2.393182
Be1Cl2,6.643474,7.966013,6.842925,8.26056
Be1Cr1La3S7,1.160348,1.980339,1.17657,1.996966
Be1Cr1S7Y3,1.061639,1.942104,1.061639,1.942104
Be1Cr2O4,2.3982170000000003,3.815743,2.805192,4.27486
Be1F2,8.014116,10.150669,8.014116,10.150669
Be1F3Rb1,1.667919,3.79595,1.839914,4.34206
Be1Ga1La3S7,1.146254,1.914405,2.247949,3.18015
Be1H2,5.308808,6.545713,5.308808,6.545713
Be1I2,4.145781,5.176865,4.145781,5.176865
Be1In1La3S7,1.635174,2.472746,2.309051,3.255864
Be1K2O2,2.869532,4.318896,4.708482,6.219345
Be1K4P2,1.145547,1.804255,2.801088,3.538643
Be1La3Lu1S7,1.398552,2.31611,2.441143,3.509786
Be1La3S7Sb1,1.504866,2.070018,1.504866,2.070018
Be1La3S7Sc1,0.990898,1.925937,2.145658,3.204158
Be1Li1N1,2.706374,3.871775,6.150475,7.566735
Be1Li1P1,1.147464,1.802117,3.211489,3.988319
Be1Li1Sb1,0.852706,1.3890260000000003,1.253917,1.828367
Be1Na1Sb1,0.897745,1.532692,3.040395,3.91534
Be1Na2O2,2.90516,4.401244,4.113968,5.607892
Be1O1,8.17168,10.121819,15.162077,17.4173
Be1P2,0.832738,1.547868,0.952733,1.671889
Be1S1,3.137296,4.095618,5.695002,6.909351
Be1Se1,0.0,0.596229,0.0,5.478716
Be1Te1,2.005379,2.688552,3.629878,4.504002
Be2C1,1.15395,1.910955,4.133922,5.138815
Be2Ca1P2,0.733952,1.400491,2.644224,3.560335
Be2Cl6Te7,1.279508,1.904917,1.376239,2.070846
Be2K2Na4O5,2.49563,4.002883,4.480442,6.038561
Be2Mg1P2,0.677056,1.2966609999999994,3.063861,3.88882
Be2N2Sr1,1.8653839999999997,3.0266020000000005,3.833623,5.126899
Be3N2,3.32618,4.55563,3.32618,4.55563
Be3P2,0.213682,0.775522,0.213682,0.775522
Be4Ca2N4,2.472621,3.728212,4.527484,6.034689
Be4O7Te1,1.280456,2.892269,1.280456,2.892269
Be5Pt1,0.113911,0.311739,2.726054,3.251667
Bi10Mo3O24,2.4409750000000003,3.4391489999999996,2.4409750000000003,3.4391489999999996
Bi12Cl12Pt1,0.770421,1.356957,0.770421,1.356957
Bi12Ge1O20,2.354007,3.4351139999999996,3.210623,4.341896
Bi12Mn1O20,0.0,0.524542,0.0,0.831388
Bi12O20Pb1,1.515504,2.687305,1.515504,2.687305
Bi12O20Si1,2.34794,3.440852,3.207314,4.352112
Bi12O20Ti1,2.280804,3.3401549999999998,3.083263,4.208676
Bi14Br16Pd1,0.984483,1.375046,0.984483,1.375046
Bi1Br1,0.086018,0.117956,0.086018,0.117956
Bi1Br1Cd1S2,1.711179,2.510693,2.488534,2.510693
Bi1Br1Cd1Se2,1.358812,2.084981,1.877212,2.702915
Bi1Br1Cu3O8Se2,1.027971,2.703912,1.317117,2.884099
Bi1Br1Fe1S2,1.630324,2.492673,1.630324,2.492673
Bi1Br1Mn1S2,1.857129,2.533085,2.353948,3.065907
Bi1Br1O1,2.197014,3.0896669999999995,4.418845,5.411572
Bi1Br1S1,1.91933,2.654432,2.73068,3.555538
Bi1Br1Se1,1.547492,2.217672,2.103684,2.79412
Bi1Br3,2.829356,3.63016,3.3061,4.139625
Bi1Br4Te2,1.058044,1.523487,1.921915,2.673356
Bi1C1Ca1F1O4,2.306066,3.792248,2.306066,3.792248
Bi1C3H6N3S6,2.3324949999999998,3.1910439999999998,2.511402,3.345478
Bi1C4N4Rb1S4,2.646294,3.514585,3.1189,4.030515
Bi1C6Cs2N6Na1S6,2.719421,3.4601070000000003,3.085769,3.884172
Bi1Ca1Cu1,0.0,0.119835,0.0,0.487667
Bi1Ca1Li1,0.6085859999999998,1.1436450000000002,0.776105,1.270258
Bi1Ca2Na3O6,1.583677,3.005685,2.388697,3.898038
Bi1Ca3N1,0.3410599999999997,1.019972,0.3410599999999997,1.019972
Bi1Cd1Cl1O2,2.892586,4.025217,4.273862,5.458899
Bi1Cd1Cl1S2,1.906607,2.728773,2.357768,3.224478
Bi1Cd1I1Se2,1.25292,1.945783,1.976332,2.665859
Bi1Cl12Cs4Sb1,0.564033,1.277137,0.721584,1.466627
Bi1Cl1Cu3O8Se2,1.186004,3.042789,1.428324,3.184201
Bi1Cl1F8,2.069825,3.883864,2.332364,3.883864
Bi1Cl1Mn1S2,2.07847,2.781786,2.458248,3.180516
Bi1Cl1O1,2.557372,3.545359,4.506664,5.573855
Bi1Cl1O2Pb1,2.037957,3.014051,3.911907,4.958876
Bi1Cl1S1,1.9394479999999996,2.7035820000000004,2.783725,3.584664
Bi1Cl1Se1,1.551204,2.19718,2.498598,3.220537
Bi1Cl1Te1,1.274917,1.8430699999999995,1.889411,2.471684
Bi1Cl2Cu1S1,0.950668,1.634333,0.950668,1.634333
Bi1Cl3,3.345371,4.456338,3.691376,4.918789
Bi1Cl4N3S4,2.042225,2.871467,2.521275,3.466272
Bi1Cl5Hg4S2,2.296002,3.215368,2.296002,3.991587
Bi1Cl6Tl3,2.895947,3.7859399999999996,3.301377,4.206154
Bi1Co1O3,1.5482690000000003,3.0048160000000004,1.984988,3.662071
Bi1Co1O5P1,2.768311,4.198207,2.856788,4.659113
Bi1Co1Zr1,0.9868500000000004,1.4497250000000008,2.320379,2.653627
Bi1Cr1O3,0.627201,2.904385,1.265403,3.530971
Bi1Cs1F6,2.885399,4.914777,2.885399,4.914777
Bi1Cs1Ge1S4,1.808599,2.561091,2.470064,3.258188
Bi1Cs1Nb2O7,2.415891,3.680538,2.892434,4.193604
Bi1Cs1O2,2.320559,3.3019950000000002,3.010766,4.049847
Bi1Cs1S2,1.599282,2.348586,2.512442,3.295566
Bi1Cs1S4Si1,2.332389,3.13981,2.466104,3.274027
Bi1Cs3Se3,2.025708,2.774554,2.062324,2.813524
Bi1Cu1La2S5,1.233756,1.811863,1.402513,2.027924
Bi1Cu1O1Se1,0.614205,1.146679,2.241199,2.834833
Bi1Cu1O1Te1,0.0,0.445111,0.0,2.45517
Bi1Cu1O8W2,1.408059,2.125598,1.772704,2.497178
Bi1Cu1P2Se6,0.97196,1.700107,1.69819,2.388755
Bi1Cu1Pb1S3,0.874589,1.426064,0.874589,1.426064
Bi1Cu1S2,0.7447889999999999,1.2861509999999994,1.425423,2.008205
Bi1Cu1Sr1,0.0,0.125362,0.0,0.125362
Bi1Cu2K1S3,0.924818,1.459169,0.924818,1.459169
Bi1Cu2O6P1,1.112001,3.157854,1.752612,3.811141
Bi1Cu3I1O8Se2,0.717118,2.248689,1.033635,2.474164
Bi1Cu3S3,1.028815,1.6601559999999997,1.459135,2.184133
Bi1Cu4Fe1Pb1S6,0.7595930000000006,1.4944630000000005,0.86429,1.718962
Bi1F1S2Sr1,0.848794,1.310648,0.848794,1.310648
Bi1F3,3.977376,5.651168,5.560092,7.30746
Bi1F4Li1,4.877899,6.259502,5.853742,7.290702
Bi1F4Rb1,2.92375,4.746774,2.92375,4.746774
Bi1F5,1.643968,3.469263,9.292849,11.60553
Bi1F6K1,2.392095,4.364782,2.968061,4.97328
Bi1F6Li1,2.52892,4.495645,9.368162,11.60225
Bi1F6Na1,2.861748,4.893337,9.326463,11.281828
Bi1F6Rb1,2.749655,4.775102,2.749655,4.775102
Bi1F7Kr1,2.360847,4.397582,2.480986,4.522734
Bi1F9Xe1,2.004147,3.662897,2.245571,3.946178
Bi1Fe1O3,0.687868,1.5631180000000002,1.631627,2.558092
Bi1Fe1S4Sb1,0.951572,1.545627,1.589315,2.259559
Bi1Ga1In2S6,1.788822,2.651886,2.411534,3.281722
Bi1Ga1O3,1.824926,2.933422,3.395126,4.615132
Bi1Ga2S4,2.527482,3.2850829999999993,2.566176,3.409977
Bi1Ga2Se4,1.857795,2.6708930000000004,2.368269,3.03906
Bi1Ge1K1S4,1.769391,2.51622,2.415076,3.201517
Bi1Ge1Rb1S4,1.78627,2.535538,2.439218,3.22433
Bi1H1O6Se2,3.500471,4.708565,3.73044,4.947258
Bi1H8Na3O7,3.9888890000000004,5.2021370000000005,4.756189,6.016432
Bi1I1,0.701441,1.201153,1.225936,1.766162
Bi1I1In2Se4,1.451999,2.151658,1.7258,2.450384
Bi1I1Mn1Se2,1.288038,1.903913,1.913004,2.561564
Bi1I1O1,1.525071,2.2662729999999995,3.801667,4.668918
Bi1I1O2Sr1,2.861026,3.849446,3.937956,4.996213
Bi1I1O3Te1,0.0,0.198672,0.0,2.475364
Bi1I1O4,2.365632,3.503567,3.189231,4.371535
Bi1I1S1,1.835079,2.550108,2.090803,2.813254
Bi1I1Se1,1.542968,2.1945269999999995,1.972125,2.619083
Bi1I1Te1,1.255004,1.73876,2.127313,2.637951
Bi1I3,0.732914,2.196133,1.132507,2.263099
Bi1I6Tl3,2.565823,3.290331,2.728013,3.290331
Bi1In1O3,2.281514,3.5157629999999997,3.073899,4.252708
Bi1Ir1S1,0.723466,1.340151,1.519277,2.155107
Bi1Ir1Se1,0.575496,1.1446289999999992,1.44659,2.033419
Bi1K1,0.23854,0.488493,0.29185,0.550991
Bi1K1Li6O6,1.491442,2.845057,1.491442,8.217583
Bi1K1Mn1,0.5201119999999999,1.0285059999999997,0.5201119999999999,1.0285059999999997
Bi1K1O2,1.850708,2.762817,1.850708,2.762817
Bi1K1O8W2,2.728001,3.820251,3.06834,4.202262
Bi1K1P2S6,2.19556,3.013082,2.44603,3.259038
Bi1K1P2Se6,1.727351,2.503581,2.100318,2.795927
Bi1K1S4Si1,1.976385,2.722089,2.28542,3.043885
Bi1K2Rb1Se3,2.173615,2.979417,2.223876,3.039518
Bi1K3O3,2.974165,3.987576,3.061885,4.077603
Bi1K3O4,1.135295,2.5730299999999997,2.1151,3.696036
Bi1K3Se3,2.083889,2.87877,2.203172,2.87877
Bi1K3Te3,1.528694,2.191121,1.692357,2.391025
Bi1La1O1S2,0.865236,1.314948,0.865236,1.314948
Bi1La1O1Se2,0.713762,1.147781,3.202237,1.147781
Bi1Li1O2,1.994162,2.937354,2.122182,3.056008
Bi1Li1O3,0.141883,1.180852,1.277411,2.570476
Bi1Li1O4Pd2,0.410357,1.691225,1.911343,3.400384
Bi1Li3O4,1.069833,2.321545,2.374777,3.872268
Bi1Li5O5,1.405717,2.686299,5.613773,7.131201
Bi1Lu1O6Sr2,1.694097,3.132289,2.716073,4.246941
Bi1Mg2O6V1,3.298977,4.380906,3.482494,4.380906
Bi1Mn1O3,0.298167,1.268357,0.298167,1.268357
Bi1Mn1O5P1,3.181051,4.177528,3.181051,4.177528
Bi1Mn1O5V1,2.140732,2.753292,2.435136,3.127602
Bi1Mn2O5,0.27682,1.4333550000000006,0.823974,1.904411
Bi1Mn2O6P1,2.284489,3.358986,2.6625,3.73382
Bi1N1O6Te1,2.732344,4.274408,2.963273,4.664363
Bi1N1Sr3,0.0,0.909018,0.0,0.909018
Bi1Na1O2,0.86826,1.5482910000000003,0.86826,1.5482910000000003
Bi1Na1O3,1.212555,2.509147,3.265961,4.87984
Bi1Na1O6Sr3,1.750252,3.181841,2.719896,4.235706
Bi1Na3O3,2.907089,4.0620769999999995,2.907089,4.24053
Bi1Na3O4,1.029415,2.349611,1.029415,3.978776
Bi1Nb1O4,2.917322,4.150261,3.117723,4.404775
Bi1Ni1O3,0.493741,1.066464,0.790671,1.461122
Bi1Ni1Sc1,0.0,0.264493,0.0,1.812359
Bi1O11Sr2V3,2.81582,3.729025,2.894471,3.819759
Bi1O2Rb1,2.121595,3.080276,3.199014,4.267884
Bi1O3Rh1,0.35300200000000004,1.535863,0.74289,1.993559
Bi1O3Sc1,2.694142,3.831214,3.860152,5.098617
Bi1O3Sr1,0.219939,0.687133,1.077995,1.727868
Bi1O4P1,3.749183,4.996654,4.130199,5.397491
Bi1O4Sb1,2.388759,3.878955,3.750154,5.203678
Bi1O4Ta1,2.936913,4.232497,3.180324,4.500447
Bi1O4V1,2.8128540000000006,3.2886940000000005,3.455663,4.287713
Bi1O5Pb1V1,2.528855,3.415477,2.938708,3.86347
Bi1O6P1Zn2,3.230081,4.261441,3.710166,4.761403
Bi1O6Pb2V1,2.150874,3.099857,2.991333,3.099857