material formula,Band_gap_GGA,Band_gap_HSE,Band_gap_GGA_optical,Band_gap_HSE_optical
Ga3Ru1,0.404889,0.85349,0.772016,1.289415
Ga4Ge1O8,2.125042,3.900226,4.857963,6.785766
Ga4O7Sr1,2.358025,3.978773,2.358025,3.978773
Ga4O9Sr3,2.727557,4.296945,4.70131,6.424505
Ga4Se8,0.413949,0.944493,0.706119,1.245644
Ga5H1O8,1.947289,3.684332,1.947289,3.684332
Ga5Ir3,0.0,0.023026,0.0,0.337912
Ga5Na1O12Ti2,2.579441,4.142375,2.638874,4.192768
Ga7Te10,0.865563,1.541823,1.050444,1.726085
Ga9O2S13Tl3,2.307468,3.128848,2.503746,3.400354
Ge,0.601374,1.207774,0.601374,1.207774
Ge1H3K3O2S3,2.997121,4.177635,3.705491,4.957732
Ge1H4K4O2Te4,0.597401,1.216819,1.259404,1.915351
Ge1Hf1Te4,0.360579,0.837689,0.560301,0.979779
Ge1Hg1Te4Tl2,0.061903,0.582873,0.584147,1.044286
Ge1Hg2O4,0.729965,1.823831,3.623028,5.24448
Ge1Hg2Se4,0.342483,1.090014,0.342483,1.090014
Ge1Hg4S6,0.329415,1.1157889999999997,0.329415,1.1157889999999997
Ge1I1O6Rb1,2.482241,4.195898,5.75256,7.755996
Ge1I2,1.931618,2.558108,2.887131,3.588968
Ge1I2La2,0.41184000000000065,0.7953809999999999,1.715332,2.26871
Ge1I3Rb1,0.546798,0.87574,0.546798,0.87574
Ge1I3Tl1,1.870718,2.525756,2.356246,3.053067
Ge1I4,1.922803,2.924859,1.979417,2.982285
Ge1In1Li1O4,2.091004,3.730815,2.091004,3.730815
Ge1In2Li2S6,1.915344,2.914969,1.915344,2.914969
Ge1In2Li2Se6,1.098753,1.920339,1.098753,1.920339
Ge1In2Na2S6,2.17396,3.231719,2.361743,3.231719
Ge1In2Na2Se6,1.281583,2.172747,1.928949,2.849911
Ge1In7Ir1O8,0.422346,1.276845,3.278415,4.234003
Ge1K1,0.807348,1.32331,1.342049,1.890353
Ge1K1La1S4,2.218824,3.178877,2.500645,3.589889
Ge1K1La1Se4,1.406279,2.218364,1.606886,2.480432
Ge1K1N1O1,2.600819,4.088644,4.703295,6.274985
Ge1K1O5Sb1,2.193154,3.881749,2.193154,3.881749
Ge1K1S4Y1,2.292047,3.297407,2.778258,3.83014
Ge1K2Se3,1.546946,2.426518,1.818068,2.748785
Ge1K2Se4,1.746176,2.653096,1.983731,2.918216
Ge1K2Te4,0.988073,1.662465,1.230984,1.926998
Ge1K3S3,2.224659,3.051653,3.592386,4.405442
Ge1K3Se3,1.790133,2.650235,3.234361,4.126647
Ge1K3Te3,1.035549,1.770712,1.431619,2.199589
Ge1K4O4,2.69102,4.222956,4.300104,5.862951
Ge1La2Mg1O6,4.197445000000001,6.049494999999999,4.647591,7.274282
Ge1La2S5,1.934752,2.869485,2.179272,3.170959
Ge1Li1Te2,0.309289,0.902844,1.329666,2.023994
Ge1Li2Mo3O8,1.0070800000000002,1.8276529999999998,1.0070800000000002,1.8276529999999998
Ge1Li2O5V1,2.119454,3.420665,2.669493,4.002628
Ge1Li2Pb1S4,2.242035,3.088539,3.042648,3.961875
Ge1Li2Zn1,0.040132,0.369788,1.933606,2.160603
Ge1Li4S4,2.415967,3.457332,2.786893,3.861009
Ge1Mg1N2,2.515032,4.041667,2.515032,4.041667
Ge1Mg1N4Sr3,1.432531,2.514396,1.432531,2.514396
Ge1Mg1O3,2.345192,4.022595,5.55918,7.522652
Ge1Mg1P2,1.472457,2.115911,1.598025,2.115911
Ge1Mg1Sr1,0.0,0.341747,0.0,0.60655
Ge1Mg2,0.15157299999999996,0.5419559999999999,0.942244,1.550511
Ge1Mg2O4,2.905274,4.701181,2.905274,4.701181
Ge1Mg2S4,2.239096,3.333618,2.520533,3.65913
Ge1Mg2Se4,1.339707,2.238979,1.558289,2.479002
Ge1Mn1N2,1.511293,2.448042,3.772189,4.474603
Ge1Mn1O3,1.937988,3.183395,4.940435,6.221636
Ge1Mn1O4Zn1,1.597849,2.672193,3.995145,5.252416
Ge1Mn1Te4Tl2,0.246745,0.702295,0.435242,0.865528
Ge1Mn2O4,1.564124,2.679043,3.391875,4.713037
Ge1Mn2S4,1.373058,2.223896,1.809128,2.714121
Ge1Mn2Se4,0.622956,1.404063,0.622956,1.404063
Ge1N2Sr2,0.060023,0.341911,0.060023,0.341911
Ge1Na1,0.666795,1.143825,0.666795,1.143825
Ge1Na1O4Y1,3.562026,5.265218,5.033763,6.90618
Ge1Na2O3,2.863031,4.539468,4.98202,6.809666
Ge1Na2O4Zn1,2.942586,4.350956,5.166046,6.72536
Ge1Na2O5Ti1,3.14832,4.935206999999999,3.485966,5.307108
Ge1Na2O6Te1,2.674874,4.28999,4.124077,5.824388
Ge1Na2S3,2.422854,3.548805,2.422854,3.548805
Ge1Na2Se3,1.588348,2.476668,1.588348,2.476668
Ge1Na3Se3,1.835237,2.664817,2.251311,3.085037
Ge1Na3Te3,1.175334,1.868645,1.175334,1.868645
Ge1Na4O4,2.811405,4.43022,5.378731,7.101699
Ge1Na5P3,1.014765,1.68005,1.631728,2.344551
Ge1Nb2Te4,0.120103,0.273272,0.465037,0.641307
Ge1Ni2O4,2.1256270000000006,3.353068,2.1256270000000006,3.353068
Ge1O1Sr3,0.338159,0.81808,0.338159,0.81808
Ge1O2,0.627923,2.132839,5.486927,7.565248
Ge1O3Pb1,0.0,0.793295,0.0,5.627154
Ge1O3Sr1,0.0,1.080706,0.0,7.529969
Ge1O3Zn1,2.577722,4.018626,5.725216,7.43388
Ge1O4Rb4,2.415222,3.91048,4.170667,5.658014
Ge1O4Zn2,2.445084,3.899172,2.445084,3.899172
Ge1O5Pb3,1.611419,2.581516,2.978031,3.953673
Ge1O5Sr1Ti1,2.545722,4.016385,3.051028,4.597025
Ge1O6Se2,2.679825,4.415756,2.679825,6.188679
Ge1O6Sr1Te1,2.939286,4.560453,5.728656,7.657859
Ge1P1,0.561721,1.105876,0.728287,1.304863
Ge1P1Rb3Se7,1.492621,2.378306,1.738309,2.639061
Ge1P2Zn1,1.212947,1.833909,1.387293,1.958479
Ge1P3Rb5,0.684114,1.412092,1.435755,2.169079
Ge1Pb1S3,1.584843,2.467713,2.036845,2.961036
Ge1Pb1S4Tl2,1.876896,2.576267,2.009791,2.732002
Ge1Pb2S4,1.999127,2.824546,2.50346,3.323759
Ge1Pd1S3,1.370058,2.490855,2.306066,3.463661
Ge1Pt1S1,0.765952,1.275804,1.713635,2.314236
Ge1Pt1Se1,0.318654,0.765568,1.486873,2.015494
Ge1Pt1Ti1,0.869685,1.60767,1.846883,2.649262
Ge1Rb1,0.807561,1.324836,1.381827,1.918837
Ge1Rb1S5Ta1,0.963136,1.650287,2.082575,2.86384
Ge1Rb2S3,2.208561,3.290537,2.567107,3.691781
Ge1Rb2Se3,1.420922,2.352711,1.757986,2.748409
Ge1Rh1Te1,0.310707,0.709747,0.971223,1.452204
Ge1Ru1,0.117259,0.578579,0.514177,1.010937
Ge1S1,1.204027,1.765281,1.732028,2.350829
Ge1S2,1.007598,2.129862,1.704759,2.859613
Ge1S2Tl1,1.646583,2.354841,1.938759,2.677004
Ge1S3Sn1,1.160861,1.94055,1.526909,2.348541
Ge1S3Ti1,0.220914,0.811306,0.277886,0.862466
Ge1S3Tl2,1.523559,2.29209,2.194936,2.908961
Ge1S4Sr2,2.185558,3.195361,2.490251,3.538284
Ge1S4Tl4,1.780114,2.471417,2.208015,2.979329
Ge1S8V4,0.235734,1.035885,0.785625,1.936739
Ge1Sb4Te7,0.369171,0.62474,0.369171,0.62474
Ge1Se1,0.079369,0.259043,0.079369,0.259043
Ge1Se2,1.434609,2.306787,1.434609,2.306787
Ge1Se3Tl2,0.963129,1.622514,1.648185,2.361107
Ge1Se4Sr2,1.708256,2.587612,2.43563,3.345787
Ge1Se4Tl4,0.975529,1.613044,1.432016,2.028104
Ge1Te1,0.384168,0.592233,0.384168,0.592233
Ge1Te3Tl3,0.623103,1.122,1.197785,1.74487
Ge1Te4Zr1,0.380707,0.892198,0.563898,1.001175
Ge1Te5Tl2,0.025702,0.293456,0.055348,0.293456
Ge1Te6Ti1,0.197254,0.382224,0.517375,0.8295
Ge2H2Na2O8Sn1,2.490524,4.231725,2.490524,4.231725
Ge2Hg3K2S8,1.437043,2.341502,2.250762,3.247284
Ge2Hg3K2Se8,0.983783,1.737996,1.765768,2.609248
Ge2I2S3,2.161146,3.213391,2.308859,3.4213
Ge2In1K1O6,2.12495,3.755734,4.253442,6.089236
Ge2In1Li1Sr2,0.0,0.03817,0.0,0.03817
Ge2In1Na1O6,2.176598,3.802576,4.373984,6.197762
Ge2In2O7,0.945168,2.476158,3.715778,5.360715
Ge2In6O9Pt1,1.413315,2.393646,3.069409,3.963107
Ge2K1O9V3,1.552296,2.742846,2.105424,3.18349
Ge2K2O6Zn1,2.995759,4.427282,2.995759,4.427282
Ge2K2Pb1S6,2.031975,2.919558,2.133296,3.045016
Ge2K2S5,2.248499,3.347697,2.248499,3.347697
Ge2K2Se5,1.731343,2.692996,2.215918,3.192348
Ge2K6O7,2.917631,4.494221,4.139974,5.794072
Ge2La3O14Sb1Zn3,3.167747,4.514265,4.632582,6.50179
Ge2Li1N3,2.617353,3.931891,2.617353,3.931891
Ge2Li1O6V1,2.062052,3.162003,2.150564,3.2395
Ge2Li4Mn1S7,2.276191,3.278501,2.608013,3.743578
Ge2Li4N6Sr3,2.035121,3.198679,2.948263,4.13019
Ge2Mg1Na4Se6,1.805303,2.657952,3.038963,3.957319
Ge2Mn1Na1O6,0.875222,2.234645,0.875222,2.234645
Ge2Mn1O7Sr2,2.02525,3.17008,4.156252,3.17008
Ge2N2O1,2.530827,4.005346,5.415632,7.051926
Ge2N3Na1,2.182408,3.515186,3.941433,5.376502
Ge2N6Sr5,1.354863,2.406583,2.592477,3.70787
Ge2Na1O12P3,3.719988,5.67727,4.788676,6.778949
Ge2Na1O6V1,2.028905,3.167561,2.943066,4.229626
Ge2Na2S5,2.411123,3.49998,2.691105,3.734674
Ge2Na2S6Zn1,2.230328,3.272574,2.230328,3.272574
Ge2Na2Se5,1.295155,2.173515,1.689083,2.554857
Ge2Na2Se6Zn1,1.301343,2.142119,1.901618,2.785694
Ge2Na4Se5,1.630588,2.527019,2.227074,3.159807
Ge2Na4Te5,0.567367,0.972803,1.098098,1.555666
Ge2Na6S7,2.44751,3.544854,3.047532,3.544854
Ge2Na6Se7,1.573333,2.491579,1.573333,2.491579
Ge2O7Rb6,2.90466,4.487394,2.90466,4.487394
Ge2Os1,0.0,0.262971,0.0,1.1347
Ge2P4Sr3,0.882765,1.48758,1.253663,1.9143
Ge2Rb2S5,2.282802,3.387251,2.541579,3.636038
Ge2Rb2Se5,1.485595,2.409571,1.792759,2.701924
Ge2S5Tl2,1.936644,2.799306,2.202375,3.121737
Ge2Sb2Te5,0.0,0.091828,0.0,0.091828
Ge2Se5Sr2,1.027227,1.827857,1.027227,1.827857
Ge2Se5Tl2,1.353795,2.129129,1.585068,2.363657
Ge2Sr1,0.365375,0.733377,0.731893,1.122087
Ge3Ir2Se3,0.580218,1.242488,0.580218,1.242488
Ge3La4S12,1.896298,2.920466,2.055319,3.090426
Ge3N4,1.890702,3.195382,4.586822,6.061466
Ge3Na1P3,1.069183,1.71611,1.542197,2.180079
Ge3O8Zn2,2.646882,4.137579,4.622933,6.252485
Ge3O9Sb2,2.825868,4.182847,3.810973,5.244438
Ge3O9Ti1Tl2,2.3144219999999995,3.631555,2.3144219999999995,3.631555
Ge3Os2,0.751746,1.281101,0.751746,1.281101
Ge3Rh2S3,0.588849,1.118079,0.656308,1.273948
Ge3Rh2Se3,0.333597,0.884314,0.333597,0.884314
Ge3Ru2,0.304372,0.651829,0.395018,0.651829
Ge4O9Sr1,2.840751,4.642316,4.763931,6.743064
Ge4Se9,1.268193,2.169188,1.268193,2.169188
Ge5Ir4,0.132134,0.411554,0.425608,0.705441
Ge9Li4O20,2.592269,4.382434,3.921995,5.803758
H,7.648339,9.232045,15.185237,16.878385
H1.25Li1.75N1,2.518815,3.880477,2.518815,3.880477
H1.5Li1.5N1,2.070323,3.433439,4.335272,5.85484
H10O18S2Zn7,3.902151,5.115251000000001,6.605283,7.94815
H10O8Se1,1.910113,3.717567,1.910113,3.717567
H11I2O6Sc1,3.388672,4.733656,3.562929,5.094601
H12I8Mg1O6,1.43783,2.211909,2.248003,3.099393
H12K2N6Sn1,2.489065,3.78783,2.489065,3.78783
H12Li1N4Te1,1.478159,2.25118,3.894245,4.872147
H12Li3O10V1,4.166499,5.353499,4.274127,5.489152
H12Mg1N6O6,4.598592,5.91089,4.841165,6.160725
H12Mg1O12S2,0.466444,1.001465,4.281491,5.761161
H12Mn2N4O8Zn1,1.445711,2.523326,1.445711,2.523326
H12N10O8Pd1,1.807714,3.405577,1.959569,3.595735
H12N3Nb1O8,2.817382,4.539136,3.450847,5.611229
H12N5Rb3,2.117798,3.481815,2.117798,3.481815
H12N6Na2Sn1,1.281077,1.902382,2.011592,3.221592
H12N6Ni1O4,0.870797,1.611116,0.870797,1.611116
H12N6Rb2Sn1,2.5065,3.821247,4.334771,5.769686
H18O12Se4Sn1Sr2,0.5885340000000001,0.952906,1.710795,0.952906
H1Hg1N1O4,1.705441,3.686936,1.705441,3.686936
H1I1O1Pb1,2.769052,3.646994,3.42619,4.312949
H1I1O2Pb2,2.275191,3.175821,2.477375,3.978308
H1I1O4Zn1,3.6133349999999997,4.84814,4.372957,5.753421
H1In1O2,1.682003,3.175336,6.08866,7.895501
H1K1,3.422112,4.499724,3.422112,4.499724
H1K1Mn1O10P3,0.73002,2.152829,1.95325,3.470016
H1K1Mn2O9P2,0.561091,1.8845770000000002,1.320368,2.794136
H1K1O5Si2,5.148324000000001,6.911722,6.065197,7.868126
H1K1O7Se2V1,1.548767,2.43976,2.869522,4.06151
H1K3Mo1O1S4,1.9007779999999999,2.7731339999999998,1.9007779999999999,2.7731339999999998
H1K3O1S4W1,2.3601799999999997,3.2782549999999997,2.3601799999999997,3.2782549999999997
H1La1O1,2.18417,3.442448,3.456749,4.614442
H1La2Li1O3,1.954535,3.216748,3.828807,5.897542
H1Li2N1,2.617815,3.824397,2.617815,3.824397
H1Li4N1,2.030071,3.025591,3.549791,4.647511
H1Mn1O10P3Rb1,0.747069,2.162761,2.01807,3.528219
H1Mn1O2,0.350817,1.628888,0.350817,1.628888
H1Mn1O5Pb1V1,2.237348,2.825804,2.279453,2.869846
H1Mn1O9Pb2V2,1.048198,2.254243,1.851517,3.113705
H1N1,4.147953,5.466744,4.410871,5.752698
H1N1Na1O2,3.002555,4.395874,3.22667,4.713095
H1N1O4Zn1,2.003332,3.656922,2.133417,3.803394
H1N1O8P2Zn2,1.890701,3.744648,1.890701,3.744648
H1N1S3,2.696228,3.843828,2.696228,3.843828
H1N1S7,2.715807,3.841687,2.715807,3.841687
H1N1S8,1.932939,2.93354,1.932939,2.93354
H1N2O9P1Pb2,3.344924,5.059895000000001,3.344924,5.183243
H1N2P1,4.857246,6.38152,5.270025,6.818217
H1N3,3.808028,5.259836,4.220648,5.819637
H1N3O1Zn1,3.236753,4.354353,4.469815,5.635089
H1Na1,3.849469,4.854205,6.447049,7.542664
H1Na1O1,1.909928,3.426337,1.929722,3.457432
H1O1,4.42834,6.834356,4.615188,7.111988
H1O2Rb1S1,3.3775370000000002,4.677011,4.355167,5.749152
H1O3P1Tl1,3.433034,4.582641,3.751691,4.889614
H1O3Te1,2.278916,3.431004,2.35878,3.515843
H1O5P1Ti1,2.673144,4.151339,2.690924,4.182069
H1O5P1Zn2,3.926818,5.175259,6.275323,7.541072
H1O5Pb1V1Zn1,2.931815,3.841048,2.931815,3.841048
H1O5Rb5Si1,2.544349,3.991565,4.312502,5.769142
H1O5Si1Zn2,1.757225,4.0681959999999995,1.976231,4.0681959999999995
H1O6Ti2V1,1.468055,2.529354,1.48427,2.529354
H1O7Rb1Se2Zn2,4.324018,5.604055,4.784637,6.123772
H1O9Sr2V3,2.091178,3.035845,2.685365,3.621277
H1Rb1,2.877842,3.883237,2.877842,3.883237
H1Se1Y1,1.507568,2.278548,1.881125,2.721027
H1Si1,2.052467,2.797096,3.955481,4.878079
H2Hg1I3K1O1,1.68272,2.593345,1.68272,2.593345
H2Hg1O5Se1,1.465156,3.03752,1.465156,3.03752
H2I2K2O10Se1,3.661219,5.121913,3.732781,5.212666
H2I3K1O1,1.918193,2.71521,1.971873,2.777185
H2I3O9Rb1,3.3643669999999997,4.57275,3.712825,4.57275
H2K1N1,2.065815,3.401245,2.065815,3.401245
H2K1N1O3S1,5.258535,6.987208,6.875289,8.720501
H2K2Mn3O10V2,2.424796,3.106925,2.624962,3.305346
H2K2O5Ru1,0.799875,2.92772,0.828565,2.984959
H2Li1N1,3.435437,4.962021,5.419186,6.995131
H2Li1N1O3,2.643972,4.50521,2.744117,4.616188
H2Li1N1Sr2,1.533039,2.408727,1.646587,2.545181
H2Mg1,3.746586,4.838347,5.641086,6.720883
H2Mg1O8S2,3.418883,5.28832,3.539645,5.407318
H2Mn1O2,1.9967110000000001,3.1783520000000003,4.308094,5.568851
H2Mn1O5P1,1.278513,2.938247,3.984068,5.183872
H2Mn1O5Se1,2.505332,3.802944,3.728488,5.183601
H2Mn2O5S1,1.817877,2.936696,1.817877,2.936696
H2Mn2O6S1,3.652209,4.894771,5.070433,6.156498
H2Mn3O10Se3,3.006797,3.998224,3.05655,4.066045
H2N1Na1,1.921133,3.265329,5.586062,6.955806
H2N1O4Se1,1.331297,3.632346,1.558458,4.265787
H2N2O5Sr1,2.272346,4.111479,2.302955,4.142751
H2Na2Ni3O10P2,4.154635000000001,5.062004,4.283056,5.317611
H2Na3O6Os1,0.387718,1.702603,0.583919,1.984281
H2Ni3O10Se3,3.369208,4.468853,3.459641,4.532565
H2O1,0.0,0.019133,0.0,0.838436
H2O11P2V2,1.826827,2.787859,1.923557,2.911719
H2O13Ti6,2.680399,4.08769,2.977314,4.424002
H2O2,0.0,0.024009,0.0,0.415901
H2O2Pb1,2.602162,3.527949,2.904172,3.86297
H2O3Se1,4.460786,5.971007,5.334168,6.958956
H2O3Sr1,3.297276,5.323964,3.297276,5.323964
H2O3V1,1.579215,2.655158,3.149345,4.480219
H2O4Pb2Pd1,1.1585860000000006,2.485969,2.473069,4.107191
H2O4Pb3,2.758194,3.647071,3.047238,3.893318
H2O4Sr1Te1,3.8956349999999995,5.251283,3.8956349999999995,5.251283
H2O4W1,0.730362,1.679232,0.730362,1.679232
H2O5Se1V1,2.194098,3.378842,2.288622,3.506986
H2O5Se1Zn1,2.923642,4.614927,2.923642,4.614927
H2O5Si1Zn2,3.489011,5.39204,3.561649,5.39204
H2O5V2,1.179074,2.079879,1.596741,2.541276
H2O6S1Ti1,2.318652,3.562981,2.343082,3.562981
H2O7Ti3,2.821414,4.274611,3.06959,4.548761
H2O8P2Sn1,2.6353440000000004,4.329352,3.62804,5.284979
H2O8P2Sr1,2.972154,5.110356,3.461082,5.710358
H2O8P2Sr1Zn1,0.648582,1.638165,1.704073,1.638165
H2O8Pb4S1,2.687704,3.671211,3.131761,4.127024
H2O8Se2Zn1,2.85294,4.684718,2.85294,4.684718
H2S1,3.243037,4.554158,4.776744,6.188487
H2Si1,3.632911,4.62111,3.78346,4.777966
H2Sr1,1.293543,2.180285,3.033858,4.006853
H3Hg1I1O6,0.864339,2.262554,1.554166,2.891102
H3I1Sr2,2.096099,2.951741,2.622685,3.583746
H3I3N2,0.676823,1.419238,2.206885,3.158153
H3K1Li2O3,2.675616,4.579572,2.675616,4.579572
H3K1Mg1,2.488871,3.496699,5.447136,6.636382
H3K1Si1,2.547605,3.355669,2.547605,3.355669
H3La1O10P3,0.305485,0.79089,3.329949,0.79089
H3La3O8V1,2.049968,3.290699,2.161842,3.427599
H3Li1N1O3P1,4.663788,6.275845,5.532037,7.203049
H3Li1O2,0.0,1.018738,0.0,8.548758
H3Li1Sr1,1.692674,2.646692,2.300829,3.296008
H3Lu1,0.0,0.347468,0.0,0.347468
H3N1O6Sr2,2.82046,4.600722,6.007986,7.855674
H3N3Pb1S2,1.849866,2.693139,2.000737,2.875582
H3Y1,0.023279,0.299315,1.13099,0.299315
H4Hg2O9P2,1.925094,3.554693,3.254111,4.974363
H4Hg3O11S2,1.717005,3.355377,2.969283,4.697196
H4I1N1O4,2.409186,4.274342,3.165166,5.119419
H4I3N1,1.573736,2.365233,1.693572,2.365233
H4I3N1O9,2.195369,3.304714,2.402002,3.491392
H4I3N1Pb1,2.731324,3.449756,2.731324,3.449756
H4K1O13P2V2,0.819328,1.96276,1.124817,2.442288
H4K1O7V1,2.733357,4.230575,2.858336,4.332125
H4K2Mn1O10Se2,0.640165,1.575801,0.923889,2.043496
H4K2Mn3O12P4,4.490223,5.652033,5.241178,6.276884
H4K2O6Os1,0.181357,1.637119,0.181357,1.637119
H4Li1N2Rb1,2.318099,3.663175,2.318099,3.663175
H4Mg2Ni1,1.688879,2.483664,2.573819,3.321905
H4Mn1Na2O10S2,4.437306,5.808194,5.263711,6.471689
H4Mn1Na2O10Se2,2.48086,3.757296,3.496911,3.757296
H4N1O7V3,1.4201899999999998,2.4270240000000003,1.541288,2.484131
H4N1O8V3,2.05153,2.997811,2.446869,3.46998
H4N1S4,0.7453270000000001,1.563968,1.069861,1.83241
H4N2Ni1O8,3.2758570000000002,4.956644000000001,3.2758570000000002,4.956644000000001
H4N6O1S4,2.259232,3.149388,3.020316,4.167065
H4Na2Ni1O10Se2,0.8276720000000001,1.741707,0.8276720000000001,1.741707
H4Na2Pt1,2.118585,3.185769,5.238599,6.461372
H4O11P2Ti2,2.496952,3.975522,2.496952,3.975522
H4O8Ti3,2.473132,3.987621,2.56363,4.210845
H4O9P2Rh1,0.228605,1.25986,0.350846,1.401335
H5K2O6Sb1,3.1598,4.844933,4.15725,5.913139
H5N1O2,3.45927,5.6828140000000005,3.45927,5.6828140000000005
H5N1O3Se1,4.381826,5.815151999999999,4.958208,6.458758
H5N1O7Se2V1,1.582375,2.473364,2.812642,3.976909
H6Hf1Na2O6,4.441256,6.221697,5.964723,7.764968
H6Hg1I3N1O1,1.658334,2.596929,1.658334,2.596929
H6I1Li1O7,0.258545,0.520283,1.367102,0.520283
H6In1N1O6P2,3.614794,5.474158,3.614794,5.474158
H6K1O9S1V1,2.898817,4.188469,3.05446,4.369011
H6K1O9Se1V1,2.718845,4.13278,2.905828,4.284579
H6K2O6Pb1,2.065269,3.377501,6.333584,7.6855
H6K3O6Sc1,3.807518,5.526069,3.807518,5.526069
H6La1O12P3,4.9283090000000005,7.186293999999999,4.948823,8.379055
H6La1O6P3,4.871378,7.026889,4.927427,7.026889
H6Li1Mn1O7,2.130139,3.230619,2.204692,3.232022
H6Li1O7Tc1,3.674153,5.041551,3.822765,5.214542
H6Li2O6Pt1,2.665898,4.360514,3.40854,5.190614
H6Li2O6Sn1,1.456252,2.432595,2.087642,2.432595
H6Li2Pt1,2.774985,3.668216,5.887166,6.96651
H6Li4Os1,2.791859,4.047019,2.791859,4.047019
H6Li4Ru1,2.489541,3.911051,2.489541,3.911051
H6N2Se4Zn1,0.47345000000000015,1.146119,2.362085,3.374966
H6N4O4Pd1,2.185706,4.002078,2.782261,4.629906
H6N4O4Pt1,2.297535,3.838888,3.235358,4.932543
H6N8Pd1,1.053723,2.589829,1.780326,3.52914
H6Na2O6Pt1,2.655666,4.347252,2.835028,4.549995
H6Na4Ru1,2.137844,3.486448,2.705778,4.049382
H6O10V3,1.585752,2.490021,1.611097,2.490021
H6O4,0.0,0.0608,0.0,0.254821
H6O6P2V1,2.686545,3.962531,2.686545,3.962531
H6O6Sr2Zn1,3.030103,4.638295,3.376387,5.189265
H6O9Rb1S1V1,2.913031,4.19264,3.121151,4.432893
H6O9Rb1Se1V1,2.735648,4.133687,3.267574,4.594119
H6O9S1Tl1V1,2.721542,3.756861,3.018827,4.089229
H6Os1Sr2,2.460115,3.661344,4.149534,5.310964
H6Ru1Sr2,2.259029,3.629575,3.883385,5.439734
H7Hg1O7Te1,2.646521,3.538367,2.646521,3.538367
H7I1O10S1,2.462304,4.282414,2.462304,4.282414
H7La1Ni5,0.865332,0.922167,1.701264,1.994786
H7N2O10Sc1,0.974864,2.9276,1.153022,3.111421
H7N2O5P1V1,2.626697,3.915729,2.705396,4.017299
H8I6N2Re1,0.675383,2.18695,0.951374,2.469776
H8K1N3,2.344604,3.624445,4.970825,6.309698
H8K1N4Y1,2.792641,4.249061,4.510844,6.073569
H8K2N4Zn1,2.158432,3.366997,2.158432,3.366997
H8K2O15P4Zn1,0.6263810000000001,2.674112,0.772521,2.674112
H8Li3N4Na1,1.530576,3.157142,1.67476,3.37745
H8Mg1O14V4,2.116099,3.2203340000000003,2.41693,3.542603
H8Mn1N4S4Sb2,1.4281459999999995,2.205812,2.265785,3.085041
H8Mn1O16P4Tl2,4.47783,5.386679,4.91453,5.899188
H8Mo1N2O2S2,2.059944,2.894603,2.242022,3.128778
H8N10Zn1,4.242458999999999,5.306801,4.242458999999999,5.306801
H8N8Na1O12Rh1,2.576884,4.370029,2.686397,4.495663
H8N8O2Pt1,2.272704,3.618958,2.569096,4.042869
H8Ni1O16P4Rb2,4.956598,6.03496,5.139178,6.275123
H8Ni1O16P4Tl2,4.478231,5.529896,4.64174,5.725026
H8O16P4Rb2Zn1,5.25464,6.949019,6.885483,6.949019
H8O8Pt1Sr2,2.653633,4.394793,2.881932,4.624911
He,18.025458,19.720338,30.384926,32.383574
He2Ne1,15.365507,18.241823,15.815746,18.689239
Hf1I1N1,0.983919,1.773484,2.268014,3.19913
Hf1I4,3.204417,4.176141,3.204417,4.176141
Hf1La2S5,1.076287,1.857254,1.076287,1.857254
Hf1La2Se5,0.765833,1.448452,0.765833,1.448452
Hf1Mo2O8,2.715758,4.018729,2.849127,4.166401
Hf1N1O3Ta1,1.837197,2.908946,2.974316,4.182907
Hf1N2,1.153378,2.227963,2.013852,3.232776
Hf1N2Sr1,0.291617,1.17679,3.022637,4.132493
Hf1O1S1,2.856134,3.925669,3.666732,4.832299
Hf1O2,3.770347,5.236878,3.770347,5.236878
Hf1O3Pb1,2.400838,3.53846,4.466405,3.53846
Hf1O7V2,2.690907,3.735462,2.777632,3.844817
Hf1P2S6,2.297154,3.249804,2.654546,3.628156
Hf1Pb1S3,1.353522,2.032845,1.445396,2.139793
Hf1Pb1S4Tl2,0.8438970000000001,1.4302039999999998,1.896836,2.594716
Hf1Pb1Se4Tl2,0.578566,1.114778,1.520998,2.218759