material formula,Band_gap_GGA,Band_gap_HSE,Band_gap_GGA_optical,Band_gap_HSE_optical
Cl3K2N3O5Os1,2.250861,3.475205,2.38656,3.634765
Cl3K2N3O5Ru1,2.102199,3.394706,2.202455,3.506359
Cl3K2N3O6Pt1,2.763222,3.919042,2.880581,4.046208
Cl3La1,4.499093,5.770922,4.937466,6.230441
Cl3La4N1S3,2.960813,4.08514,2.967004,4.094366
Cl3Mn1Na1,4.126522,5.255302,4.557065,5.515939
Cl3Mn1Tl1,2.64173,3.6788629999999998,4.437613,5.350435
Cl3Mo1,1.079099,3.084582,1.079099,3.084582
Cl3Mo1N1,1.55756,2.569749,1.671003,2.676822
Cl3Mo1O1,0.910215,2.755669,1.035361,2.755669
Cl3Mo1S2,1.382571,2.237862,1.822677,2.237862
Cl3N1,2.027044,3.570851,2.258962,3.819757
Cl3N1Se2,0.606807,1.041642,0.606899,1.041642
Cl3N1W1,1.743149,2.6912570000000002,1.743149,2.6912570000000002
Cl3N1Y2,2.0509479999999995,3.1308420000000003,3.791998,5.019619
Cl3N3S2W1,0.823484,1.54861,0.832631,1.54861
Cl3N3Ti1,2.209528,3.364607,2.375629,3.519583
Cl3Na1,2.565877,3.918435,2.596238,3.951257
Cl3Nb1O1,2.316807,3.42595,2.559257,3.756339
Cl3Nb1Se1,0.727435,1.7999260000000001,1.052253,2.13095
Cl3Ni1Rb1,3.33881,4.2599,3.520191,4.501965
Cl3O1V1,2.7272220000000003,3.745979,2.74162,3.761673
Cl3O1W1,0.188778,0.97639,0.286541,0.97639
Cl3O2Re1,1.842911,2.9409,1.933033,3.056585
Cl3P1,3.906569,5.147225,4.23852,5.506778
Cl3Pt1,1.12308,1.905097,1.259138,2.068757
Cl3Re1,0.999406,1.579029,1.039641,1.620913
Cl3Re6Se8Tl1,1.439385,2.051621,1.684392,2.33266
Cl3Rh1,1.560101,3.065685,1.7046,3.215956
Cl3Rh1Te6,1.03154,1.624205,1.232952,1.816461
Cl3S8Sb1,2.762808,3.866079,2.908539,4.036831
Cl3Sb1,3.651526,4.680362,4.007489,5.049766
Cl3Sc1,3.799864,5.370616,4.001285,5.629615
Cl3Tc1,0.275451,0.800007,0.631717,1.345431
Cl3Y1,4.553888,5.964134,4.553888,5.964134
Cl3Y2,0.689105,1.299074,0.941083,1.452118
Cl3Zr1,0.394198,1.38411,1.142598,2.25569
Cl4Co1Cs2,2.879078,4.552847,2.879078,4.552847
Cl4Co1Li2,2.430466,4.261959,2.788696,4.261959
Cl4Co1Na2,2.780673,4.477341,2.780673,4.477341
Cl4Co1Rb2,2.840069,4.497757,2.880344,4.557481
Cl4Cr1Cs2,0.259208,1.064491,3.624245,4.296344
Cl4Cr1Li2,2.259905,3.299257,4.215934,5.125819
Cl4Cr1Na2,2.243513,3.273438,2.243513,3.273438
Cl4Cr1Rb2,0.166703,0.958278,3.592454,4.407867
Cl4Cs1Fe1,2.402334,3.673034,2.461984,3.68655
Cl4Cs1O2Re1,1.463383,2.502132,1.473077,2.507582
Cl4Cs1Re1,1.185585,1.782228,1.240664,1.852684
Cl4Cs2Cu1,0.99778,2.520105,0.99778,2.520105
Cl4Cs2I2Pd1,0.853574,1.694476,1.663782,2.895519
Cl4Cs2Pd1,1.748646,3.351976,1.748646,3.351976
Cl4Cs2Pt1,2.070407,3.564446,2.109299,3.61957
Cl4Cs6O1,2.108262,3.220244,2.108262,3.220244
Cl4Cu1Ga1,2.4935289999999997,3.540877,3.154008,4.271075
Cl4Cu1H4K2O2,1.546077,3.282731,1.631938,3.282731
Cl4Cu1H4O2Rb2,1.551212,3.323429,1.614069,3.323429
Cl4Cu1Rb2,1.034119,2.577998,1.318562,2.864566
Cl4F1Nb1,2.486355,3.631973,2.544698,3.690037
Cl4F1Sb1,1.370191,2.645361,2.592414,3.99981
Cl4F5N1Te1W1,2.064247,3.130199,2.164552,3.223611
Cl4Fe1K1,2.377135,3.625688,2.436355,3.625688
Cl4Fe1Na1,2.296233,3.5671559999999998,2.298004,3.609458
Cl4Fe1Rb1,2.371874,3.633257,2.437892,3.660623
Cl4Ga1Hg1,1.466453,2.152971,3.102657,3.822378
Cl4Ga2,3.654543,4.783141,3.944357,5.088309
Cl4Ge1,3.91308,5.457517,4.160095,5.734651
Cl4H2Hg1K2O1,2.744065,4.071253,3.297635,4.673467
Cl4H2N1O1Re1,1.201798,2.22537,1.235558,2.271077
Cl4H4N1Tl1,1.940683,3.188517,1.940683,3.188517
Cl4Hf1,4.101592,5.375209,4.195514,5.473328
Cl4Hg1K2,2.240876,3.590975,2.240876,3.590975
Cl4Hg2K2O3S1,2.144045,3.214244,2.950426,4.113532
Cl4Hg3O1,1.436723,2.668748,2.337845,3.627972
Cl4Hg3S2Zn1,0.044612,0.556047,0.946334,1.58043
Cl4I1K1,2.212292,3.376175,2.316683,3.47935
Cl4K1Tl1,1.98328,3.229042,1.98328,3.229042
Cl4K2O2Os1,1.614124,3.096801,1.614124,3.096801
Cl4K2Pd1,1.466685,3.155924,5.331705,6.96091
Cl4K2Pt1,1.847223,3.363871,4.873679,6.254921
Cl4Mn1Na2,4.113316,5.188885,4.785993,5.78189
Cl4Mn1Rb2,3.391764,4.385596,4.543179,5.462442
Cl4Mo1O1,1.263702,2.196474,1.375506,2.30643
Cl4Mo1O1Te2,0.174608,0.461939,0.525431,0.461939
Cl4N1Re1,1.024733,1.935561,3.992001,5.155244
Cl4N1V1,1.68655,2.501075,1.770239,2.597813
Cl4N3Sb1,1.855932,3.169685,2.081582,3.398081
Cl4N4S4Te1,1.8878,2.679206,1.918612,2.719028
Cl4Na2Pd1,1.207162,2.907423,1.562275,2.907423
Cl4Nb1,0.970382,2.019578,1.310079,2.368442
Cl4Nb1O1Te4,0.37370000000000037,0.847235,0.466782,0.847235
Cl4O1Os1,0.93313,2.337935,1.016664,2.415821
Cl4O1Rb6,1.666143,2.833433,1.666143,2.833433
Cl4O1W1,1.859685,2.824832,3.067779,4.141642
Cl4Os1,0.423326,2.100267,1.090527,2.854549
Cl4Os1S3Se1,1.429847,2.10258,1.434078,2.10258
Cl4Os1Sc4,0.645766,1.429065,0.850465,1.646588
Cl4Pb1,1.549965,2.73893,1.549965,2.73893
Cl4Pd1Tl2,1.103556,2.301811,3.384113,4.503219
Cl4Rb1Re1,1.074611,1.639503,1.197201,1.794177
Cl4Re1,0.855654,2.542685,0.868804,2.595538
Cl4Re1S1Te1,2.42974,3.270207,2.544622,3.274733
Cl4Re1Se1Te1,2.40879,3.256689,2.467067,3.313686
Cl4Re1Te2,2.237308,3.129293,2.36271,3.186431
Cl4S1Tl6,1.769321,2.417034,1.769321,2.417034
Cl4S1W1,1.875662,2.843353,2.118973,3.10073
Cl4Si1,5.525665,7.050979,5.965847,7.563364
Cl4Sn1,3.422204,4.881136,3.713989,5.197599
Cl4Ta1,1.109291,2.101705,1.472224,2.47959
Cl4Ti1,3.144173,4.466968,3.215872,4.543703
Cl4Tl2,1.754102,2.74845,2.053641,3.08549
Cl4W1,0.129031,1.00169,0.258881,1.16643
Cl4Zr1,3.66689,4.973311,3.762432,5.057308
Cl5Co1Cs3,2.908057,4.580805,2.954131,4.639017
Cl5Co1Tl3,2.191562,3.669795,2.3431,3.855278
Cl5Cr1Cs2H2O1,2.408317,3.770489,2.55962,3.935777
Cl5Cr1O1Rb2,0.818666,1.908735,0.862539,1.954874
Cl5Cs1Pd2,1.409758,2.973515,1.498995,2.973515
Cl5Cs2Fe1H2O1,2.163089,3.2195270000000002,2.255663,3.269179
Cl5Cs2Tl1,1.573899,2.627971,1.573899,2.627971
Cl5Cs3Cu2,2.974661,3.950881,4.078952,5.135663
Cl5Cs3Mn1,4.2026,5.476952000000001,4.2026,5.476952000000001
Cl5Cs3Ni1,2.564413,3.66308,2.569334,3.67966
Cl5Fe1N4S4,1.612963,2.355744,1.804758,2.547415
Cl5Fe1Tl3,2.34671,3.507274,2.34671,3.730845
Cl5Hg7In1S6,1.51003,2.452398,1.51003,2.452398
Cl5K2Mo1O1,0.90871,2.864172,0.925849,2.873483
Cl5K2N1O1Ru1,1.820439,3.271478,1.820439,3.271478
Cl5K2N1Os1,1.618741,3.098614,1.677596,3.15097
Cl5K2O1Re1,0.654414,2.162994,0.654414,2.162994
Cl5K2O1Tc1,0.662021,2.327159,0.662021,2.327159
Cl5Mo1,0.140697,0.868276,0.338624,1.112324
Cl5Mo1N2S2,0.444592,1.296975,0.570293,1.451909
Cl5Mo1S2Se1,2.010366,2.891834,2.101584,3.000207
Cl5N1S1W1,0.924272,1.814798,1.027821,1.950541
Cl5Na1Sn2,2.990818,3.865097,3.135942,4.026954
Cl5Nb1,2.269805,3.420896,2.278863,3.430697
Cl5Nb1P4S10,1.215515,2.052058,1.434894,2.252871
Cl5Nb3O2,0.811707,1.729191,0.95054,1.881148
Cl5O4Re2,0.600486,0.290325,0.821092,1.861112
Cl5P1,1.805433,3.221382,1.805433,3.221382
Cl5P4S4Ta1,1.732283,2.71254,1.732283,2.71254
Cl5P4S5Ta1,2.090222,2.988322,2.121284,3.025884
Cl5P4S6Ta1,2.189527,3.108939,2.279376,3.194638
Cl5S2Se1W1,2.276193,3.195613,2.276193,3.195613
Cl5Sb1,1.634283,2.895172,1.634283,2.895172
Cl5V1,1.235843,2.015298,1.394559,2.221463
Cl5W1,0.13966,1.428604,0.258588,1.551657
Cl6Cr1Na3,2.623988,3.951969,2.714053,4.057591
Cl6Cs1Sb1,1.951332,3.226309,1.951332,3.226309
Cl6Cs2Ge1,2.138443,3.434534,2.138443,3.434534
Cl6Cs2Hg1Pd1,1.220787,2.629618,2.02311,3.59096
Cl6Cs2Pb1,1.315377,2.366543,1.315377,2.366543
Cl6Cs2Pt1,2.064804,3.401573,2.064804,3.401573
Cl6Cs2Re1,1.227117,3.075111,1.227117,3.075111
Cl6Cs2Se1,2.701244,3.444045,3.324505,4.128475
Cl6Cs2Sn1,2.626919,3.913838,2.626919,3.913838
Cl6Cs2Te1,2.727472,3.557729,3.381725,4.27018
Cl6Cs2Ti1,2.151341,3.433878,2.227448,3.504951
Cl6Cs3H8O4V1,2.245308,3.251252,3.480575,4.906241
Cl6Fe1H12O6Pt1,1.181219,1.518193,1.187014,1.531308
Cl6Fe1Hf1,3.057132,3.6637090000000003,3.059313,3.666158
Cl6Fe1K3Na1,3.099748,3.749148,3.099748,3.749148
Cl6Fe1N1Se2,1.544537,2.346153,1.635119,2.43842
Cl6Fe1Zr1,2.632534,3.2855760000000003,2.786494,3.389797
Cl6Ga1N1Se2,1.562761,2.373464,1.629831,2.447718
Cl6Ga1O2Re1,1.992365,3.110625,2.021196,3.141218
Cl6H16N5O3Rh1,1.8250929999999999,3.4515320000000003,2.303249,3.97147
Cl6H4N1Sb1,1.910117,3.164856,1.910117,3.164856
Cl6H5O2Sb1,1.87319,3.153605,2.18522,3.486873
Cl6H8N2Pt1,1.717215,3.020488,1.717215,3.020488
Cl6H8N2Re1,0.97917,2.804766,0.97917,2.804766
Cl6H8N2Sn1,2.260433,3.5246,2.260433,3.5246
Cl6Hf1Hg3Se2,2.544654,3.774152,2.844742,4.089917
Cl6Hf1Te4,1.2418799999999997,1.743223,2.160229,3.14593
Cl6Hf1Te8,0.892895,1.3176200000000002,0.944867,1.371902
Cl6Hg3S2Zr1,2.578329,3.860508,2.804743,4.088291
Cl6Hg3Se2Zr1,2.570836,3.790852,2.866807,4.101509
Cl6I1P1,1.865955,3.106631,2.024815,3.319581
Cl6I2,1.67306,2.814538,1.989094,3.173139
Cl6Ir1K3,2.0048980000000003,3.496267,2.0048980000000003,3.496267
Cl6K2Mn1,0.456143,1.5598840000000003,1.274861,2.463305
Cl6K2Pd1,1.20408,2.282797,2.057947,3.228059
Cl6K2Pt1,1.859734,3.178887,2.74002,4.146738
Cl6K2Re1,1.0626609999999999,2.893256,1.317368,3.15521
Cl6K2Sn1,2.414025,3.685573,2.414025,3.685573
Cl6K2Tc1,1.160631,3.173689,1.160631,3.173689
Cl6K2Te1,2.507368,3.306642,3.224017,4.087387
Cl6K2Ti1,2.004025,3.2803820000000004,2.030358,3.302367
Cl6K3Mn1Na1,4.141984,5.20935,4.695943,5.664131
Cl6K3Rh1,1.7935569999999998,3.422559,1.7935569999999998,3.422559
Cl6K3Sc1,3.9921110000000004,5.6441,3.9921110000000004,5.6441
Cl6K4Mn1,3.725104,4.744358,4.582201,5.564484
Cl6Mn1Rb2,0.568376,1.68622,1.253005,2.443116
Cl6Mo1Na3,1.671224,3.7650390000000002,1.733026,3.825063
Cl6N1Nb1S1,1.784577,2.916014,1.858903,2.991625
Cl6N1S2Sb1,1.4646,2.611402,1.4646,3.221352
Cl6N2O2V1,1.420798,2.307318,1.558423,2.479576
Cl6Na1Nb1,2.22515,3.357851,2.22515,3.357851
Cl6Na1Sb1,2.016476,3.349793,2.15126,3.405063
Cl6Na1Ta1,2.869485,4.036423,2.869485,4.036423
Cl6O1S1Ti1,2.521763,3.750801,2.587089,3.812773
Cl6O2P1Sb1,2.196636,3.567356,2.377295,3.736207
Cl6Pb1Rb2,1.175897,2.240401,1.175897,2.240401
Cl6Pb2Pd1,1.436867,2.93703,1.671706,3.147101
Cl6Pd1Rb2,1.305043,2.399547,2.040815,3.21403
Cl6Pd1S2,1.601978,2.995537,2.247694,3.779872
Cl6Pd1Se2,1.66379,2.828734,1.746765,3.238888
Cl6Pt1Rb2,1.94988,3.279196,1.94988,3.279196
Cl6Pt1S2,1.824328,3.192664,2.005912,3.361806
Cl6Pt1Tl2,1.68645,2.842368,2.363453,3.580282
Cl6Rb2Se1,2.577125,3.308901,3.317983,4.121283
Cl6Rb2Sn1,2.50703,3.785794,2.50703,3.785794
Cl6Rb2Te1,2.628116,3.452851,3.382149,4.272309
Cl6Rb2Ti1,2.063832,3.345185,2.109552,3.386325
Cl6Rb3Tl1,2.059388,3.187443,2.059388,3.187443
Cl6S8W1,0.477598,1.053804,0.493661,1.053804
Cl6Sn1Tl2,2.395911,3.655,4.27699,5.52225
Cl6Ta1Te2,1.015622,1.355817,1.015622,1.355817
Cl6Te1Tl2,2.542545,3.356554,3.271727,4.246673
Cl6W1,1.70482,2.636811,2.016663,2.967794
Cl7Cs1Ti2,0.09338800000000003,2.102983,0.235235,2.191511
Cl7Cs2Nb3O5,2.300021,3.501119,2.300021,3.501119
Cl7Cu2Rb3,0.332569,1.805287,0.332569,1.805287
Cl7Fe1Se1,1.783169,2.524651,1.912231,2.524651
Cl7Fe1Te1,0.10902099999999998,0.74224,1.669807,0.74224
Cl7Ga3,3.722443,4.931036,3.722443,4.931036
Cl7I1S1,1.666039,2.864626,1.780353,2.98345
Cl7Ir1Te7,1.381963,2.0368090000000003,1.741048,2.0368090000000003
Cl7K1Mo2O2,0.987243,2.834046,1.020379,2.866597
Cl7K2Nb3O5,2.306227,3.509846,2.306227,3.509846
Cl7K3Mn2,3.066712,4.095724,4.411394,5.320038
Cl7Mn2Rb3,3.0295,4.067247,4.431196,5.349044
Cl7Mo1O1S1,0.768662,2.478302,0.895125,2.555444
Cl7Mo1O1Se1,0.887118,2.630554,1.424959,2.982314
Cl7Mo1O1Te1,0.852572,2.599971,0.988991,2.763841
Cl7Mo2N1,0.204799,1.5208949999999999,0.280239,1.572334
Cl7Mo2O2Tl1,0.775819,2.528811,1.040501,2.845443
Cl7N2Sb1Se3,1.27965,2.180579,1.398717,2.296887
Cl7Na1,0.380005,1.219708,0.792108,1.628679
Cl7Nb3,0.939869,1.429266,0.992877,1.479062
Cl7Nb3O5Rb2,2.319014,3.523306,2.319014,3.523306
Cl7Nb3Se5,0.957195,1.9899689999999999,1.076803,2.090632
Cl7Nb3Te1,0.692655,1.5732749999999998,0.692655,1.5732749999999998
Cl7O1S1Ta1,2.793018,3.959693,2.89364,4.089969
Cl7O4P2V1,2.089807,2.92174,2.252118,3.095943
Cl7Rh1Se2,1.980146,3.2294530000000004,2.025012,3.2294530000000004
Cl7Rh1Te7,1.382342,2.0257500000000004,1.714814,2.0257500000000004
Cl8Cr1Li5,2.50751,3.8441929999999997,2.669069,4.024693
Cl8Cu1Ga2,1.280793,2.874365,1.280793,2.874365
Cl8Fe1P1,2.387616,3.709965,2.444115,3.804384
Cl8Ga2Ni1,3.203275,4.220588,3.237825,4.26686
Cl8H6Hg3N2Pt1,2.02362,3.421362,2.681119,4.28403
Cl8Hg2Pd1Rb2,1.8066,3.41245,2.590031,4.302601
Cl8Hg2Pd1Tl2,1.650594,3.038562,2.503155,3.997793
Cl8I1P1,1.542402,2.643157,1.632422,2.643157
Cl8I1Sb1,1.507405,2.698779,1.507405,2.698779
Cl8I3Sb1,1.094724,2.198966,1.849538,2.805167
Cl8In2Ru1Te9,1.191489,1.83859,1.233029,1.901527
Cl8Ir1K3Sn1,1.601666,2.969648,1.601666,2.969648
Cl8Li6V1,3.336394,4.284346,3.336394,4.284346
Cl8Mn1Na6,4.260359,5.34558,4.837454,5.487857
Cl8Mn3Na2,4.128171,5.203385,4.686233,5.682254
Cl8Na2Ti3,0.432741,1.583856,1.06936,2.343689
Cl8Nb3,0.116018,1.068641,0.42727,1.282292
Cl8O2Se2Sn1,2.740729,4.022376,3.146668,4.459329
Cl8O2Se4Te3W2,0.441944,1.35065,0.526392,1.443851
Cl8O9Re4,0.999937,1.607532,1.129366,2.131186
Cl8Pt1S2,1.897759,3.03237,2.121368,3.267961
Cl8Ru1S3,0.915661,1.28056,1.043445,1.445663
Cl9Cs1Mn4,4.018049,4.920362,4.166287,5.092978
Cl9Cs1W3,0.265392,1.426879,0.654395,1.878671
Cl9Cs3Fe2,1.448144,2.747141,1.654234,2.87137
Cl9Cs3Lu2,5.226769,6.6833469999999995,5.226769,6.6833469999999995
Cl9Cs3Ru2,0.510057,1.813118,0.559039,1.86467
Cl9Cs3Sb2,2.397728,3.069085,2.708914,3.397682
Cl9Cs3Tl2,1.966403,3.1415800000000003,1.966403,3.1415800000000003
Cl9Cs3W2,1.3402380000000003,2.108383,1.3402380000000003,2.108383
Cl9Cs5Nb2S4,1.713552,2.719309,2.051317,3.048943
Cl9Cu1Nb3Rb1,1.076993,1.556086,1.129937,1.639582
Cl9Hg6In2P3,1.972574,3.071602,2.940121,3.071602
Cl9In1Li1Nb3,0.956095,1.496093,1.001556,1.581797
Cl9In2Ta3,1.342507,1.805392,1.410491,1.924611
Cl9In5,2.753545,3.765916,3.096257,4.126556
Cl9In7,2.032002,2.884709,2.032002,2.884709
Cl9K2Nb3,1.079035,1.5883710000000002,1.092291,1.600697
Cl9K2Ta3,1.475811,1.944136,1.525609,2.04748
Cl9K3W2,1.431267,2.209245,1.431267,2.209245
Cl9N3S4Te2,2.193445,3.064109,2.280381,3.176819
Cl9Nb1Te1,1.9251109999999998,2.858737,2.125188,3.088445
Cl9Nb2S4Tl5,1.575055,2.537506,2.006181,2.923417
Cl9P1Re1,0.926664,2.732173,0.989159,2.78177
Cl9P1Sn1,2.075737,3.328553,2.393069,3.902898
Cl9P1Ti1,2.194626,3.503625,2.235367,3.547568
Cl9P1V1,1.646983,2.55742,1.713706,2.627704
Cl9Re3,0.992488,1.571944,1.02623,1.606923
Cl9S1Sb1,1.396203,2.761107,1.396203,2.761107
Cl9Ta1Te1,2.498107,3.486108,2.706323,3.711736
Co10Ge3O16,1.2191160000000005,2.580109,1.2191160000000005,2.580109
Co1Cr2O4,2.216853,3.600225,2.764718,4.247761
Co1Cr2S4,0.895087,1.775697,1.156864,2.334247
Co1Cr4H4K2O16,1.814103,2.85338,1.975529,2.909837
Co1Cs1O2,0.537004,2.233359,1.060075,2.671637
Co1Cs2F6,1.311507,3.085033,1.311507,3.085033
Co1Cs2I4,1.8450579999999999,3.1113980000000003,1.8450579999999999,3.1113980000000003
Co1Cs2O4Si1,2.727557,4.201129,2.874051,4.632406
Co1Cs3I5,1.90897,3.23007,1.936758,3.259118
Co1Cu1O7P2,0.736539,2.361743,3.003963,4.778433
Co1Cu2Ge1S4,0.505896,1.40768,1.386737,2.439232
Co1Cu2S4Si1,0.69378,1.785025,1.313256,2.620104
Co1Cu2S4Sn1,0.432827,1.167797,0.432827,1.167797
Co1Cu2Se4Sn1,0.0,0.602268,0.0,0.602268
Co1D2K1O5P1,2.637948,4.483896,3.377537,5.097911
Co1D5Mg2,0.184021,1.289669,2.327038,3.214031
Co1F12O4S2Sb2,3.022801,4.333621,3.243744,4.333621
Co1F1H4Na1O6S1,3.202057,4.974672,3.929345,5.932411
Co1F2,2.375735,4.82131,2.483541,5.054865
Co1F3,1.800638,3.726601,2.017171,3.912162
Co1F3Na1,2.9278809999999997,4.6477070000000005,2.9278809999999997,4.6477070000000005
Co1F4H8N2O2,3.315572,5.091731,3.839149,5.811549
Co1F4Li1,2.163952,4.102278,2.190161,4.115756
Co1F6Pt1,1.830537,2.909619,2.143742,3.412905
Co1F6Rb2,1.24209,3.020798,1.24209,3.020798
Co1F6Sn1,2.451274,3.734789,3.392876,5.166735
Co1Fe1La3S7,1.330856,1.94835,1.330856,2.032325
Co1Fe1O5P1,2.049093,3.063242,2.173936,3.277203
Co1Ga1La3S7,1.302695,2.419956,1.853038,3.178411
Co1Ga2S4,1.655024,2.9500719999999996,2.15074,3.475348
Co1Ge1Na2O4,1.486115,2.795499,1.486115,2.795499
Co1Ge1O3,1.431006,2.6427210000000003,2.761475,2.6427210000000003
Co1Ge1Te1,0.184687,0.795510000000001,0.477181,1.082761
Co1Ge2O7Sr2,1.810802,3.051347,1.810802,3.051347
Co1H2K2O10Se2,1.20584,2.137635,1.552462,2.807862
Co1H2O4Se1,2.907143,4.542307,2.944712,4.542307
Co1H2O5S1,2.918872,4.753443,3.694502,5.737656
Co1H2O5Se1,2.4518,4.036163,2.4518,4.036163
Co1H4K2O10Se2,2.705374,4.132132,3.56699,5.189564
Co1H4N2O8,2.648375,4.183933,2.76594,4.771292
Co1H4Na2O10Se2,2.629613,4.305586,3.064175,4.921866
Co1H6N1O5P1,2.816172,4.573357,3.693064,5.666741
Co1H8O14P2V2,2.218897,3.439504,2.459227,3.439504
Co1I10Y6,0.173629,0.7370540000000001,0.494024,0.905099
Co1I12Sc7,0.229693,0.791434,0.381746,0.939908
Co1I1N2O2,1.631405,2.507427,1.675698,2.6515
Co1I2,1.508327,2.298287,1.972155,3.125378
Co1I4Rb2,1.759038,3.061738,1.908875,3.234545
Co1In1La3S7,1.621202,2.276464,2.064,3.128301
Co1In2Se4,0.711834,1.543688,1.420957,2.493915
Co1In3Y8,0.048088,0.217074,0.048088,0.217074
Co1K1O2,1.400323,3.17566,1.716284,3.421839
Co1K1O9P3,3.184112,4.956381,3.995192,5.695843
Co1K2O2,2.185826,3.483881,2.618209,4.367865
Co1K2O7V2,2.358052,3.248549,2.390273,3.373471
Co1K3N6O12,2.660138,4.293992,2.703081,4.293992
Co1K3O2,1.531661,2.464197,1.880991,2.794792
Co1K6S4,1.890025,2.788071,2.216577,3.507901
Co1K6Se4,1.626219,2.45022,1.626219,2.45022
Co1La2O4,2.306501,3.393606,2.449913,3.830312
Co1La4Li1O8,1.444494,3.595597,2.855869,4.788175
Co1Li1N2Sr2,0.606525,1.552585,0.606525,1.552585
Co1Li1O2,0.8968020000000001,2.5894670000000004,1.162536,2.626146
Co1Li1O4P1,2.708008,4.387958,2.764798,4.387958
Co1Li2O4Si1,2.930668,4.721279,2.930668,4.721279
Co1Li2O8S2,3.033211,4.847618,3.09024,4.91456
Co1Li2O8W2,2.67615,3.808654,2.968605,4.129066
Co1Li3Na2O4,1.640542,3.213345,1.654067,3.228074
Co1Li6O4,2.661509,3.310395,2.799944,3.310395
Co1Lu2O14S2Te2,2.929829,4.443372,3.376408,4.732289
Co1Mn1O3,0.681222,1.625023,0.999286,1.98621
Co1Mo1O4,1.8101790000000002,3.083891,1.987084,3.290168
Co1Mo1O6Sr2,0.7143549999999999,1.570637,1.97693,2.793724
Co1Mo1O6Te1,2.174252,2.974329,2.554227,3.706134
Co1N2O6,0.0,3.825136,0.0,3.825136
Co1N6Na3O12,2.481212,4.009745,2.497864,4.059616
Co1Na1O2,0.946728,2.118441,1.287217,2.733078
Co1Na1O4P1,2.920037,4.791921,2.973964,4.89273
Co1Na2S2,1.888522,3.208959,2.099297,3.55827
Co1Na3O2,1.849883,2.692132,1.849883,2.978301
Co1Na3O3,1.873311,3.596547,1.927519,3.656339
Co1Na4O3,1.574916,2.6933680000000004,2.592023,4.318848
Co1Na4O4,1.490406,3.151878,1.564559,3.227575
Co1Na5O2S1,1.885347,2.779818,2.013684,2.779818
Co1Na6S4,2.011577,3.078182,2.191667,3.078182
Co1Na6Se4,1.65885,2.565617,1.65885,2.565617
Co1Nb1O4,0.829045,2.444585,0.966366,2.444585
Co1Nb2O6,2.44676,3.543648,2.556637,3.581879
Co1O1,0.226399,1.634123,3.578299,5.70901
Co1O10P2V2,1.364293,2.561123,1.513193,2.795728
Co1O14S2Te2Y2,2.897879,4.435787,3.418085,4.717105
Co1O2,0.0,0.025574,0.0,0.025574
Co1O2Rb3,1.321797,2.224544,1.321797,2.224544
Co1O3Se1,2.512956000000001,4.221394999999999,2.557454,4.221394999999999
Co1O3Sr1,0.143403,1.146312,0.412187,1.324651
Co1O3Sr2,1.578648,3.310278,2.713136,4.860463
Co1O3Ti1,2.003924,3.210605,2.252787,3.52223
Co1O3Y1,1.2355010000000002,2.71319,1.2355010000000002,2.71319
Co1O4Rh2,0.647145,2.387257,1.18996,2.387257
Co1O4S1,1.8873739999999999,4.134931,1.8873739999999999,4.134931
Co1O4Sb2,1.990701,3.008082,2.816522,3.695271
Co1O4Se1,2.188871,3.6474480000000002,2.890916,4.657185
Co1O5Se2,2.4906779999999995,3.68299,2.4906779999999995,3.68299
Co1O6Pb2Te1,1.725337,2.76871,2.699719,4.449672
Co1O6Pb2W1,1.388866,2.464149,2.467754,3.487493
Co1O6Pt3,0.181879,1.193139,0.633647,1.507548
Co1O6Sb2,0.244352,1.513729,1.464608,2.69643
Co1O6Sr2Te1,1.41208,2.502542,1.41208,2.502542
Co1O6Sr2W1,1.311541,2.364058,2.566138,3.83741
Co1O6Ta2,2.4527920000000005,4.011806,2.689898,4.108115
Co1O6V2,1.9644149999999998,2.7742150000000003,2.205387,3.017429
Co1O9Se3Sr2,2.8004909999999996,4.362489,2.989613,4.542167
Co1P1S3,0.7451020000000002,2.3921969999999995,1.348703,2.568847
Co1P1Se1,0.609717,1.394409,1.021181,1.828112
Co1P2,0.161921,0.557685,0.161921,0.557685
Co1P3,0.0,0.11003499999999988,0.0,0.490745
Co1P3Si3,1.199236,1.888729,1.479437,2.200685
Co1Rb2S2,2.300903,3.72375,2.403048,3.772268
Co1Rh2S4,0.449543,1.351471,0.757914,1.674262
Co1S1Sb1,0.5883269999999996,1.345001,1.145433,1.940021
Co1Sb1Ti1,0.948288,1.404118,1.736862,2.572659
Co1Sb3,0.151618,0.749221,0.151618,0.749221
Co2Ge1O4,1.494842,2.694215,2.383859,2.694215